 Entering Gaussian System, Link 0=gdv
 Initial command:
 /home/daniele/workdir/XLBOMD//l1/l1.exe "/local/daniele/gauscr.132381.headnode.cm.cluster/Gau-68577.inp" -scrdir="/local/daniele/gauscr.132381.headnode.cm.cluster/" -exedir="/home/daniele/workdir/XLBOMD//l1:/home/daniele/workdir/XLBOMD//exe-dir:/cm/shared/apps/gaussian/gdvH36/gdv/bsd:/cm/shared/apps/gaussian/gdvH36/gdv/local:/cm/shared/apps/gaussian/gdvH36/gdv/extras:/cm/shared/apps/gaussian/gdvH36/gdv"
 Entering Link 1 = /home/daniele/workdir/XLBOMD//l1/l1.exe PID=     68578.
  
 Copyright (c) 1988,1990,1992,1993,1995,1998,2003,2009,2014,
            Gaussian, Inc.  All Rights Reserved.
  
 This is the private, development version of
 the Gaussian(R) DV system of programs. It is based on
 the Gaussian(R) 09 system (copyright 2009, Gaussian, Inc.),
 the Gaussian(R) 03 system (copyright 2003, Gaussian, Inc.),
 the Gaussian(R) 98 system (copyright 1998, Gaussian, Inc.),
 the Gaussian(R) 94 system (copyright 1995, Gaussian, Inc.),
 the Gaussian 92(TM) system (copyright 1992, Gaussian, Inc.),
 the Gaussian 90(TM) system (copyright 1990, Gaussian, Inc.),
 the Gaussian 88(TM) system (copyright 1988, Gaussian, Inc.),
 the Gaussian 86(TM) system (copyright 1986, Carnegie Mellon
 University), and the Gaussian 82(TM) system (copyright 1983,
 Carnegie Mellon University). Gaussian is a federally registered
 trademark of Gaussian, Inc.
  
 This software contains proprietary and confidential information,
 including trade secrets, belonging to Gaussian, Inc.
  
 This software is provided under written license and may be
 used, copied, transmitted, or stored only in accord with that
 written license.
  
 The following legend is applicable only to US Government
 contracts under FAR:
  
                    RESTRICTED RIGHTS LEGEND
  
 Use, reproduction and disclosure by the US Government is
 subject to restrictions as set forth in subparagraphs (a)
 and (c) of the Commercial Computer Software - Restricted
 Rights clause in FAR 52.227-19.
  
 Gaussian, Inc.
 340 Quinnipiac St., Bldg. 40, Wallingford CT 06492
  
  
 ---------------------------------------------------------------
 Warning -- This program may not be used in any manner that
 competes with the business of Gaussian, Inc. or will provide
 assistance to any competitor of Gaussian, Inc.  The licensee
 of this program is prohibited from giving any competitor of
 Gaussian, Inc. access to this program.  By using this program,
 the user acknowledges that Gaussian, Inc. is engaged in the
 business of creating and licensing software in the field of
 computational chemistry and represents and warrants to the
 licensee that it is not a competitor of Gaussian, Inc. and that
 it will not use this program in any manner prohibited above.
 ---------------------------------------------------------------
  

 Cite this work as:
 Gaussian Development Version, Revision H.36,
 M. J. Frisch, G. W. Trucks, H. B. Schlegel, G. E. Scuseria, 
 M. A. Robb, J. R. Cheeseman, G. Scalmani, V. Barone, B. Mennucci, 
 G. A. Petersson, H. Nakatsuji, M. Caricato, X. Li, H. P. Hratchian, 
 A. F. Izmaylov, J. Bloino, B. G. Janesko, F. Lipparini, G. Zheng, 
 J. L. Sonnenberg, W. Liang, M. Hada, M. Ehara, K. Toyota, R. Fukuda, 
 J. Hasegawa, M. Ishida, T. Nakajima, Y. Honda, O. Kitao, H. Nakai, 
 T. Vreven, J. A. Montgomery, Jr., J. E. Peralta, F. Ogliaro, 
 M. Bearpark, J. J. Heyd, E. Brothers, K. N. Kudin, V. N. Staroverov, 
 T. Keith, R. Kobayashi, J. Normand, K. Raghavachari, A. Rendell, 
 J. C. Burant, S. S. Iyengar, J. Tomasi, M. Cossi, N. Rega, 
 J. M. Millam, M. Klene, J. E. Knox, J. B. Cross, V. Bakken, 
 C. Adamo, J. Jaramillo, R. Gomperts, R. E. Stratmann, O. Yazyev, 
 A. J. Austin, R. Cammi, C. Pomelli, J. W. Ochterski, R. L. Martin, 
 K. Morokuma, V. G. Zakrzewski, G. A. Voth, P. Salvador, 
 J. J. Dannenberg, S. Dapprich, P. V. Parandekar, N. J. Mayhall, 
 A. D. Daniels, O. Farkas, J. B. Foresman, J. V. Ortiz, 
 J. Cioslowski, and D. J. Fox, Gaussian, Inc., Wallingford CT, 2010.
 
 ******************************************
 Gaussian DV:  ES64L-GDVRevH.36  7-Apr-2014
                18-Apr-2017 
 ******************************************
 %nproc=16
 Will use up to   16 processors via shared memory.
 %mem=7000MW
 ----------------------------------------------------------------------
 #p b3lyp 6-31G nosymm scf=(conver=6) mmpol=(conver=8,nofmm,jacobi,dyn)
  force
 ----------------------------------------------------------------------
 1/10=7,30=1,38=1,170=1/1,3;
 2/12=2,15=1,17=6,18=5,40=1/2;
 3/5=1,6=6,11=2,16=1,25=1,30=1,71=1,74=-5,180=3401/1,2,3;
 4//1;
 5/5=2,6=6,38=5,113=3831/2;
 6/7=2,8=2,9=2,10=2,28=1/1;
 7/29=1,30=1,150=31/1,2,3,16;
 1/10=7,30=1,170=1/3;
 99//99;
 Leave Link    1 at Tue Apr 18 16:45:55 2017, MaxMem=  7340032000 cpu:               1.1 elap:               0.1
 (Enter /cm/shared/apps/gaussian/gdvH36/gdv/l101.exe)
 ----------------------------------------------------------------------
 ONIOM QM/MMPol HL=Cytosine LL=Guanine FREE (Init Geom MP2) CHARGES = f
 f02r1
 ----------------------------------------------------------------------
 Symbolic Z-matrix:
 Charge =  0 Multiplicity = 1
 C                     33.36     29.261    32.214 
 C                     34.056    29.345    31.071 
 C                     33.408    29.326    29.848 
 C                     32.001    29.348    29.812 
 C                     31.282    29.382    30.966 
 C                     31.961    29.312    32.175 
 H                     33.892    29.274    33.161 
 H                     35.141    29.366    31.084 
 C                     34.161    29.356    28.543 
 H                     30.201    29.482    30.927 
 H                     31.403    29.442    33.098 
 C                     31.968    29.288    27.422 
 C                     33.348    29.322    27.316 
 C                     31.03     29.28     26.257 
 C                     31.428    29.309    24.901 
 C                     29.638    29.286    26.531 
 C                     30.52     29.34     23.884 
 H                     32.488    29.298    24.668 
 C                     28.697    29.233    25.545 
 H                     29.266    29.199    27.547 
 C                     29.112    29.336    24.212 
 H                     30.825    29.406    22.844 
 H                     27.659    29.128    25.847 
 H                     28.427    29.193    23.382 
 O                     31.315    29.338    28.598 
 O                     35.373    29.397    28.461 
 O                     34.128    29.41     26.227 
 H                     35.016    29.198    26.564 
 
 ITRead=  0  0  0  0  0  0  0  0  0  0  0  0  0  0  0  0  0  0  0  0
 ITRead=  0  0  0  0  0  0  0  0
 MicOpt= -1 -1 -1 -1 -1 -1 -1 -1 -1 -1 -1 -1 -1 -1 -1 -1 -1 -1 -1 -1
 MicOpt= -1 -1 -1 -1 -1 -1 -1 -1
 NAtoms=     28 NQM=       28 NQMF=       0 NMMI=      0 NMMIF=      0
                NMic=       0 NMicF=      0.
                    Isotopes and Nuclear Properties:
 (Nuclear quadrupole moments (NQMom) in fm**2, nuclear magnetic moments (NMagM)
  in nuclear magnetons)

  Atom         1           2           3           4           5           6           7           8           9          10
 IAtWgt=          12          12          12          12          12          12           1           1          12           1
 AtmWgt=  12.0000000  12.0000000  12.0000000  12.0000000  12.0000000  12.0000000   1.0078250   1.0078250  12.0000000   1.0078250
 NucSpn=           0           0           0           0           0           0           1           1           0           1
 AtZEff=   0.0000000   0.0000000   0.0000000   0.0000000   0.0000000   0.0000000   0.0000000   0.0000000   0.0000000   0.0000000
 NQMom=    0.0000000   0.0000000   0.0000000   0.0000000   0.0000000   0.0000000   0.0000000   0.0000000   0.0000000   0.0000000
 NMagM=    0.0000000   0.0000000   0.0000000   0.0000000   0.0000000   0.0000000   2.7928460   2.7928460   0.0000000   2.7928460
 AtZNuc=   6.0000000   6.0000000   6.0000000   6.0000000   6.0000000   6.0000000   1.0000000   1.0000000   6.0000000   1.0000000

  Atom        11          12          13          14          15          16          17          18          19          20
 IAtWgt=           1          12          12          12          12          12          12           1          12           1
 AtmWgt=   1.0078250  12.0000000  12.0000000  12.0000000  12.0000000  12.0000000  12.0000000   1.0078250  12.0000000   1.0078250
 NucSpn=           1           0           0           0           0           0           0           1           0           1
 AtZEff=   0.0000000   0.0000000   0.0000000   0.0000000   0.0000000   0.0000000   0.0000000   0.0000000   0.0000000   0.0000000
 NQMom=    0.0000000   0.0000000   0.0000000   0.0000000   0.0000000   0.0000000   0.0000000   0.0000000   0.0000000   0.0000000
 NMagM=    2.7928460   0.0000000   0.0000000   0.0000000   0.0000000   0.0000000   0.0000000   2.7928460   0.0000000   2.7928460
 AtZNuc=   1.0000000   6.0000000   6.0000000   6.0000000   6.0000000   6.0000000   6.0000000   1.0000000   6.0000000   1.0000000

  Atom        21          22          23          24          25          26          27          28
 IAtWgt=          12           1           1           1          16          16          16           1
 AtmWgt=  12.0000000   1.0078250   1.0078250   1.0078250  15.9949146  15.9949146  15.9949146   1.0078250
 NucSpn=           0           1           1           1           0           0           0           1
 AtZEff=   0.0000000   0.0000000   0.0000000   0.0000000   0.0000000   0.0000000   0.0000000   0.0000000
 NQMom=    0.0000000   0.0000000   0.0000000   0.0000000   0.0000000   0.0000000   0.0000000   0.0000000
 NMagM=    0.0000000   2.7928460   2.7928460   2.7928460   0.0000000   0.0000000   0.0000000   2.7928460
 AtZNuc=   6.0000000   1.0000000   1.0000000   1.0000000   8.0000000   8.0000000   8.0000000   1.0000000
 Leave Link  101 at Tue Apr 18 16:45:55 2017, MaxMem=  7340032000 cpu:               1.2 elap:               0.1
 (Enter /cm/shared/apps/gaussian/gdvH36/gdv/l103.exe)

 GradGradGradGradGradGradGradGradGradGradGradGradGradGradGradGradGradGrad
 Berny optimization.
 Initialization pass.
 Trust Radius=3.00D-01 FncErr=1.00D-07 GrdErr=1.00D-07 EigMax=2.50D+02 EigMin=1.00D-04
 Number of steps in this run=      2 maximum allowed number of steps=      2.
 GradGradGradGradGradGradGradGradGradGradGradGradGradGradGradGradGradGrad

 Leave Link  103 at Tue Apr 18 16:45:55 2017, MaxMem=  7340032000 cpu:               0.3 elap:               0.0
 (Enter /cm/shared/apps/gaussian/gdvH36/gdv/l202.exe)
                          Input orientation:                          
 ---------------------------------------------------------------------
 Center     Atomic      Atomic             Coordinates (Angstroms)
 Number     Number       Type             X           Y           Z
 ---------------------------------------------------------------------
      1          6           0       33.360000   29.261000   32.214000
      2          6           0       34.056000   29.345000   31.071000
      3          6           0       33.408000   29.326000   29.848000
      4          6           0       32.001000   29.348000   29.812000
      5          6           0       31.282000   29.382000   30.966000
      6          6           0       31.961000   29.312000   32.175000
      7          1           0       33.892000   29.274000   33.161000
      8          1           0       35.141000   29.366000   31.084000
      9          6           0       34.161000   29.356000   28.543000
     10          1           0       30.201000   29.482000   30.927000
     11          1           0       31.403000   29.442000   33.098000
     12          6           0       31.968000   29.288000   27.422000
     13          6           0       33.348000   29.322000   27.316000
     14          6           0       31.030000   29.280000   26.257000
     15          6           0       31.428000   29.309000   24.901000
     16          6           0       29.638000   29.286000   26.531000
     17          6           0       30.520000   29.340000   23.884000
     18          1           0       32.488000   29.298000   24.668000
     19          6           0       28.697000   29.233000   25.545000
     20          1           0       29.266000   29.199000   27.547000
     21          6           0       29.112000   29.336000   24.212000
     22          1           0       30.825000   29.406000   22.844000
     23          1           0       27.659000   29.128000   25.847000
     24          1           0       28.427000   29.193000   23.382000
     25          8           0       31.315000   29.338000   28.598000
     26          8           0       35.373000   29.397000   28.461000
     27          8           0       34.128000   29.410000   26.227000
     28          1           0       35.016000   29.198000   26.564000
 ---------------------------------------------------------------------
                    Distance matrix (angstroms):
                    1          2          3          4          5
     1  C    0.000000
     2  C    1.340866   0.000000
     3  C    2.367379   1.384194   0.000000
     4  C    2.761169   2.410003   1.407632   0.000000
     5  C    2.426979   2.776233   2.402693   1.360086   0.000000
     6  C    1.400472   2.368318   2.740243   2.363613   1.388388
     7  H    1.086279   2.097627   3.348571   3.846707   3.412007
     8  H    2.111844   1.085281   2.128987   3.387906   3.860837
     9  C    3.758572   2.530204   1.506962   2.505200   3.763010
    10  H    3.418258   3.860120   3.387245   2.121599   1.086316
    11  H    2.155010   3.340142   3.820469   3.341293   2.136274
    12  C    4.990156   4.204544   2.821439   2.390981   3.611007
    13  C    4.898395   3.821233   2.532714   2.836389   4.194575
    14  C    6.396492   5.686431   4.307236   3.685850   4.716841
    15  C    7.564053   6.706458   5.328555   4.944469   6.067196
    16  C    6.793408   6.335125   5.021652   4.043832   4.730875
    17  C    8.801178   8.009762   6.626465   6.110205   7.123000
    18  H    7.596306   6.592362   5.261139   5.167243   6.412979
    19  C    8.137562   7.698578   6.381064   5.397863   6.007634
    20  H    6.208508   5.948445   4.739926   3.554244   3.973324
    21  C    9.059974   8.455123   7.086622   6.301307   7.094190
    22  H    9.707943   8.838926   7.465541   7.066779   8.134882
    23  H    8.547384   8.261893   7.007011   5.884096   6.276528
    24  H   10.116488   9.530449   8.163162   7.358152   8.105788
    25  O    4.154926   3.691728   2.437887   1.394450   2.368639
    26  O    4.260948   2.923917   2.406249   3.632903   4.797034
    27  O    6.037896   4.844971   3.692844   4.168956   5.527985
    28  H    5.888022   4.610451   3.658784   4.434211   5.775311
                    6          7          8          9         10
     6  C    0.000000
     7  H    2.168502   0.000000
     8  H    3.362380   2.425365   0.000000
     9  C    4.246570   4.626555   2.723450   0.000000
    10  H    2.164256   4.319433   4.943855   4.623952   0.000000
    11  H    1.086367   2.495459   4.246718   5.325597   2.481863
    12  C    4.753066   6.052941   4.846056   2.463841   3.930006
    13  C    5.053093   5.870457   4.173081   1.472295   4.792549
    14  C    5.990869   7.473707   6.340950   3.877465   4.747309
    15  C    7.293502   8.619752   7.212427   4.553643   6.152084
    16  C    6.103420   7.877408   7.142774   4.950815   4.436237
    17  C    8.415340   9.871042   8.555368   5.912987   7.051650
    18  H    7.525488   8.608301   6.943205   4.221128   6.666281
    19  C    7.390320   9.219174   8.498432   6.233653   5.593741
    20  H    5.356695   7.274785   6.859583   4.997769   3.518340
    21  C    8.457349  10.145780   9.141888   6.652095   6.804297
    22  H    9.400367  10.764033   9.301992   6.603787   8.107407
    23  H    7.654061   9.610734   9.135816   7.042471   5.691527
    24  H    9.477350  11.202751  10.219028   7.716297   7.756134
    25  O    3.634958   5.240801   4.562812   2.846588   2.585725
    26  O    5.044082   4.929350   2.633422   1.215462   5.730442
    27  O    6.331208   6.939348   4.961709   2.316864   6.125072
    28  H    6.389784   6.692500   4.524848   2.161580   6.503895
                   11         12         13         14         15
    11  H    0.000000
    12  C    5.706130   0.000000
    13  C    6.101553   1.384483   0.000000
    14  C    6.853076   1.495705   2.548798   0.000000
    15  C    8.198117   2.578271   3.085254   1.413500   0.000000
    16  C    6.801842   2.494551   3.792311   1.418723   2.421059
    17  C    9.256775   3.823199   4.447081   2.427927   1.363713
    18  H    8.500756   2.802680   2.784256   2.156620   1.085362
    19  C    8.025829   3.771683   4.977566   2.439681   2.806933
    20  H    5.953102   2.706354   4.090381   2.186860   3.418722
    21  C    9.177195   4.296876   5.251543   2.804262   2.416466
    22  H   10.270341   4.720006   5.135306   3.421472   2.145756
    23  H    8.166586   4.590611   5.878802   3.399242   3.890121
    24  H   10.164607   5.373016   6.301527   3.879279   3.365534
    25  O    4.502062   1.346063   2.403512   2.358998   3.698840
    26  O    6.104481   3.561661   2.327504   4.871648   5.314543
    27  O    7.391704   2.471540   1.342410   3.100871   3.009730
    28  H    7.470372   3.167739   1.833877   3.998646   3.956215
                   16         17         18         19         20
    16  C    0.000000
    17  C    2.790600   0.000000
    18  H    3.404910   2.118831   0.000000
    19  C    1.363996   2.468542   3.891662   0.000000
    20  H    1.085453   3.874270   4.322005   2.081567   0.000000
    21  C    2.378432   1.445705   3.406869   1.399901   3.341363
    22  H    3.875221   1.085809   2.470670   3.442922   4.958986
    23  H    2.099824   3.476152   4.973749   1.086128   2.340404
    24  H    3.375111   2.157374   4.261049   2.180153   4.248668
    25  O    2.662240   4.780567   4.101515   4.023153   2.307016
    26  O    6.052061   6.671116   4.766537   7.286901   6.178191
    27  O    4.501988   4.302582   2.265530   5.476515   5.042417
    28  H    5.378821   5.236084   3.161582   6.400730   5.833420
                   21         22         23         24         25
    21  C    0.000000
    22  H    2.193329   0.000000
    23  H    2.197202   4.372511   0.000000
    24  H    1.085621   2.466823   2.582687   0.000000
    25  O    4.908178   5.775226   4.580222   5.963910   0.000000
    26  O    7.566891   7.227384   8.149304   8.607251   4.060741
    27  O    5.406104   4.728056   6.486284   6.375148   3.679646
    28  H    6.356742   5.607686   7.392188   7.317108   4.225418
                   26         27         28
    26  O    0.000000
    27  O    2.557528   0.000000
    28  H    1.940531   0.973169   0.000000
 Symmetry turned off by external request.
 Stoichiometry    C15H10O3
 Framework group  C1[X(C15H10O3)]
 Deg. of freedom    78
 Full point group                 C1      NOp   1
 Rotational constants (GHZ):      0.8991226      0.2741798      0.2101857
 Leave Link  202 at Tue Apr 18 16:45:55 2017, MaxMem=  7340032000 cpu:               0.1 elap:               0.0
 (Enter /home/daniele/workdir/XLBOMD//exe-dir/l301.exe)
 Standard basis: 6-31G (6D, 7F)
 Ernie: Thresh=  0.10000D-02 Tol=  0.10000D-05 Strict=F.
   182 basis functions,   436 primitive gaussians,   182 cartesian basis functions
    62 alpha electrons       62 beta electrons
       nuclear repulsion energy      1203.0663416427 Hartrees.
 IExCor=  402 DFT=T Ex+Corr=B3LYP ExCW=0 ScaHFX=  0.200000
 ScaDFX=  0.800000  0.720000  1.000000  0.810000 ScalE2=  1.000000  1.000000
 IRadAn=      0 IRanWt=     -1 IRanGd=            0 ICorTp=0 IEmpDi=  4
 NAtoms=   28 NActive=   28 NUniq=   28 SFac= 1.00D+00 NAtFMM=   60 NAOKFM=F Big=F
 Integral buffers will be    131072 words long.
 Raffenetti 2 integral format.
 Two-electron integral symmetry is turned off.
 Background charge + polarizability distribution for QM/MM-Pol read from input stream:
 Start reading Amoeba file.
 Amoeba file read                       0.1543
 Neighbours found                       0.0111
 PolarGrp neighbours found              0.0054
 RotPole finished                       0.0016
 Polarizable-only vectors built         0.0017
 Defining MMPol File of lenght      3709701 Words.
 All data stored                        0.0368
 Setting everything to zero
 Free-field routines initialized.
 Leave Link  301 at Tue Apr 18 16:45:55 2017, MaxMem=  7340032000 cpu:               3.5 elap:               0.2
 (Enter /cm/shared/apps/gaussian/gdvH36/gdv/l302.exe)
 NPDir=0 NMtPBC=     1 NCelOv=     1 NCel=       1 NClECP=     1 NCelD=      1
         NCelK=      1 NCelE2=     1 NClLst=     1 CellRange=     0.0.
 One-electron integrals computed using PRISM.
 One-electron integral symmetry used in STVInt
 NBasis=   182 RedAO= T EigKep=  5.07D-04  NBF=   182
 NBsUse=   182 1.00D-06 EigRej= -1.00D+00 NBFU=   182
 Precomputing XC quadrature grid using
 IXCGrd= 4 IRadAn=           0 IRanWt=          -1 IRanGd=           0 AccXCQ= 0.00D+00.
 Generated NRdTot=       0 NPtTot=           0 NUsed=           0 NTot=          32
 NSgBfM=   180   180   180   180   180 MxSgAt=    28 MxSgA2=    28.
 Leave Link  302 at Tue Apr 18 16:45:56 2017, MaxMem=  7340032000 cpu:               5.4 elap:               0.4
 (Enter /cm/shared/apps/gaussian/gdvH36/gdv/l303.exe)
 DipDrv:  MaxL=1.
 Leave Link  303 at Tue Apr 18 16:45:56 2017, MaxMem=  7340032000 cpu:               0.7 elap:               0.1
 (Enter /home/daniele/workdir/XLBOMD//exe-dir/l401.exe)
 ExpMin= 1.61D-01 ExpMax= 5.48D+03 ExpMxC= 8.25D+02 IAcc=1 IRadAn=         1 AccDes= 0.00D+00
 Harris functional with IExCor=  402 and IRadAn=       1 diagonalized for initial guess.
 HarFok:  IExCor=  402 AccDes= 0.00D+00 IRadAn=         1 IDoV= 1 UseB2=F ITyADJ=14
 ICtDFT=  3500011 ScaDFX=  1.000000  1.000000  1.000000  1.000000
 FoFCou: FMM=F IPFlag=           0 FMFlag=      100000 FMFlg1=           0
         NFxFlg=           0 DoJE=T BraDBF=F KetDBF=T FulRan=T
         wScrn=  0.000000 ICntrl=       500 IOpCl=  0 I1Cent=   200000004 NGrid=           0
         NMat0=    1 NMatS0=      1 NMatT0=    0 NMatD0=    1 NMtDS0=    0 NMtDT0=    0
 Symmetry not used in FoFCou.
 Harris En= -803.060221892599    
 @@@@In CorGes DoIter is F
 JPrj=0 DoOrth=F DoCkMO=F.
 Leave Link  401 at Tue Apr 18 16:45:57 2017, MaxMem=  7340032000 cpu:               6.1 elap:               0.4
 (Enter /home/daniele/workdir/XLBOMD//exe-dir/l502.exe)
 Two-electron integral symmetry not used.
 Defining MMPol File of lenght        94690 Words.
 Defining MMPol File of lenght    279224100 Words.
 Closed shell SCF:
 Using DIIS extrapolation, IDIIS=  1040.
 NGot=  7340032000 LenX=  7339961719 LenY=  7339928154
 Requested convergence on RMS density matrix=1.00D-06 within 128 cycles.
 Requested convergence on MAX density matrix=1.00D-04.
 Requested convergence on             energy=1.00D-04.
 No special actions if energy rises.
 Error in input density:  TNEA=     62.0000 NAE=    62 TNEB=     62.0000 NBE=    62.
 Fock matrices will be formed incrementally for  20 cycles.
 Integral accuracy reduced to 1.0D-05 until final iterations.

 Cycle   1  Pass 0  IDiag  1:
 FoFJK:  IHMeth= 1 ICntrl=       0 DoSepK=F KAlg= 0 I1Cent=           0 FoldK=F
 IRaf= 770000000 NMat=       1 IRICut=       1 DoRegI=T DoRafI=F ISym2E= 0.
 FoFCou: FMM=F IPFlag=           0 FMFlag=      100000 FMFlg1=           0
         NFxFlg=           0 DoJE=F BraDBF=F KetDBF=F FulRan=T
         wScrn=  0.000000 ICntrl=         0 IOpCl=  0 I1Cent=           0 NGrid=           0
         NMat0=    1 NMatS0=      1 NMatT0=    0 NMatD0=    1 NMtDS0=    0 NMtDT0=    0
 Symmetry not used in FoFCou.
 QM—MM driver wants a molecular dynamics.
 --------------------------------------------------------------------
 QM/MM Polarizable Model (AMOEBA)
 ===============================
 Treatment of polarization :   AMOEBA
 Solution method           :   Iterative
 Iterative method          :   Jacobi
 Convergence threshold     :    1.0D-08
 InCore Storage            :          F
 FMM                       :      F   F
 Number of Multipoles      :    5570
 Number of induced dipoles :    5570
 @ EneQMQ -1.5489066562676764E-002
 @ EneQMDip  3.3988748583003480E-003
 @ EneQMQuad -5.0797369508302781E-004
 @ EneQMDipInd  -1.203996880999272     
 Polarisation energy:  -1.203996880999272     
 Polarisation energy (conv):  -755.5194498272347     
 E= -803.910352354286    
 DIIS: error= 4.08D-02 at cycle   1 NSaved=   1.
 NSaved= 1 IEnMin= 1 EnMin= -803.910352354286     IErMin= 1 ErrMin= 4.08D-02
 ErrMax= 4.08D-02  0.00D+00 EMaxC= 1.00D-01 BMatC= 3.37D-01 BMatP= 3.37D-01
 IDIUse=3 WtCom= 5.92D-01 WtEn= 4.08D-01
 Coeff-Com:  0.100D+01
 Coeff-En:   0.100D+01
 Coeff:      0.100D+01
 Gap=     0.181 Goal=   None    Shift=    0.000
 GapD=    0.181 DampG=1.000 DampE=0.500 DampFc=0.5000 IDamp=-1.
 Damping current iteration by 5.00D-01
 RMSDP=1.02D-02 MaxDP=3.12D-01              OVMax= 2.48D-01

 Cycle   2  Pass 0  IDiag  1:
 RMSU=  5.10D-03    CP:  9.93D-01
 QM—MM driver wants a molecular dynamics.
 Solution method           :   Iterative
 Iterative method          :   Jacobi
 Convergence threshold     :    1.0D-08
 InCore Storage            :          F
 FMM                       :      F   F
 Number of Multipoles      :    5570
 Number of induced dipoles :    5570
 @ EneQMQ -3.6431449987308585E-003
 @ EneQMDip -1.4284513429377948E-003
 @ EneQMQuad  2.0387068530334702E-003
 @ EneQMDipInd  -1.202192211842028     
 Polarisation energy:  -1.202192211842028     
 Polarisation energy (conv):  -754.3870028331282     
 E= -804.004638546634     Delta-E=       -0.094286192348 Rises=F Damp=T
 DIIS: error= 1.69D-02 at cycle   2 NSaved=   2.
 NSaved= 2 IEnMin= 2 EnMin= -804.004638546634     IErMin= 2 ErrMin= 1.69D-02
 ErrMax= 1.69D-02  0.00D+00 EMaxC= 1.00D-01 BMatC= 6.04D-02 BMatP= 3.37D-01
 IDIUse=3 WtCom= 8.31D-01 WtEn= 1.69D-01
 Coeff-Com:  0.222D+00 0.778D+00
 Coeff-En:   0.337D+00 0.663D+00
 Coeff:      0.242D+00 0.758D+00
 Gap=     0.238 Goal=   None    Shift=    0.000
 RMSDP=3.83D-03 MaxDP=9.92D-02 DE=-9.43D-02 OVMax= 2.42D-01

 Cycle   3  Pass 0  IDiag  1:
 RMSU=  3.26D-03    CP:  9.81D-01  6.13D-01
 QM—MM driver wants a molecular dynamics.
 Solution method           :   Iterative
 Iterative method          :   Jacobi
 Convergence threshold     :    1.0D-08
 InCore Storage            :          F
 FMM                       :      F   F
 Number of Multipoles      :    5570
 Number of induced dipoles :    5570
 @ EneQMQ -1.6565935684359264E-002
 @ EneQMDip  3.6382356104381524E-003
 @ EneQMQuad -4.7072415607093260E-004
 @ EneQMDipInd  -1.203617121477802     
 Polarisation energy:  -1.203617121477802     
 Polarisation energy (conv):  -755.2811471295649     
 E= -804.193564106986     Delta-E=       -0.188925560352 Rises=F Damp=F
 DIIS: error= 2.16D-02 at cycle   3 NSaved=   3.
 NSaved= 3 IEnMin= 3 EnMin= -804.193564106986     IErMin= 2 ErrMin= 1.69D-02
 ErrMax= 2.16D-02  0.00D+00 EMaxC= 1.00D-01 BMatC= 6.36D-02 BMatP= 6.04D-02
 IDIUse=3 WtCom= 7.84D-01 WtEn= 2.16D-01
 Coeff-Com:  0.557D-01 0.497D+00 0.448D+00
 Coeff-En:   0.000D+00 0.000D+00 0.100D+01
 Coeff:      0.437D-01 0.389D+00 0.567D+00
 Gap=     0.143 Goal=   None    Shift=    0.000
 RMSDP=3.12D-03 MaxDP=8.79D-02 DE=-1.89D-01 OVMax= 1.77D-01

 Cycle   4  Pass 0  IDiag  1:
 RMSU=  1.73D-03    CP:  9.87D-01  9.14D-01  3.64D-01
 QM—MM driver wants a molecular dynamics.
 Solution method           :   Iterative
 Iterative method          :   Jacobi
 Convergence threshold     :    1.0D-08
 InCore Storage            :          F
 FMM                       :      F   F
 Number of Multipoles      :    5570
 Number of induced dipoles :    5570
 @ EneQMQ -7.2069385160505213E-003
 @ EneQMDip -3.7442233781760382E-004
 @ EneQMQuad  1.9347942253643649E-003
 @ EneQMDipInd  -1.202407926930398     
 Polarisation energy:  -1.202407926930398     
 Polarisation energy (conv):  -754.5223660948246     
 E= -804.232650112944     Delta-E=       -0.039086005958 Rises=F Damp=F
 DIIS: error= 1.61D-02 at cycle   4 NSaved=   4.
 NSaved= 4 IEnMin= 4 EnMin= -804.232650112944     IErMin= 4 ErrMin= 1.61D-02
 ErrMax= 1.61D-02  0.00D+00 EMaxC= 1.00D-01 BMatC= 2.71D-02 BMatP= 6.04D-02
 IDIUse=3 WtCom= 8.39D-01 WtEn= 1.61D-01
 Coeff-Com:  0.308D-01 0.136D+00 0.383D+00 0.449D+00
 Coeff-En:   0.000D+00 0.000D+00 0.329D+00 0.671D+00
 Coeff:      0.259D-01 0.115D+00 0.375D+00 0.485D+00
 Gap=     0.141 Goal=   None    Shift=    0.000
 RMSDP=1.37D-03 MaxDP=4.06D-02 DE=-3.91D-02 OVMax= 8.51D-02

 Cycle   5  Pass 0  IDiag  1:
 RMSU=  5.46D-04    CP:  9.86D-01  7.94D-01  6.07D-01  5.63D-01
 QM—MM driver wants a molecular dynamics.
 Solution method           :   Iterative
 Iterative method          :   Jacobi
 Convergence threshold     :    1.0D-08
 InCore Storage            :          F
 FMM                       :      F   F
 Number of Multipoles      :    5570
 Number of induced dipoles :    5570
 @ EneQMQ -1.0637162641110426E-002
 @ EneQMDip  1.3736984573434895E-003
 @ EneQMQuad  6.6006373969380622E-004
 @ EneQMDipInd  -1.201798737803129     
 Polarisation energy:  -1.201798737803129     
 Polarisation energy (conv):  -754.1400941458370     
 E= -804.257531287502     Delta-E=       -0.024881174557 Rises=F Damp=F
 DIIS: error= 2.94D-03 at cycle   5 NSaved=   5.
 NSaved= 5 IEnMin= 5 EnMin= -804.257531287502     IErMin= 5 ErrMin= 2.94D-03
 ErrMax= 2.94D-03  0.00D+00 EMaxC= 1.00D-01 BMatC= 1.05D-03 BMatP= 2.71D-02
 IDIUse=3 WtCom= 9.71D-01 WtEn= 2.94D-02
 Coeff-Com:  0.884D-02 0.173D-02 0.154D+00 0.294D+00 0.542D+00
 Coeff-En:   0.000D+00 0.000D+00 0.000D+00 0.000D+00 0.100D+01
 Coeff:      0.858D-02 0.168D-02 0.149D+00 0.285D+00 0.555D+00
 Gap=     0.142 Goal=   None    Shift=    0.000
 RMSDP=3.20D-04 MaxDP=7.84D-03 DE=-2.49D-02 OVMax= 1.99D-02

 Cycle   6  Pass 0  IDiag  1:
 RMSU=  1.72D-04    CP:  9.85D-01  7.93D-01  5.87D-01  6.02D-01  5.39D-01
 QM—MM driver wants a molecular dynamics.
 Solution method           :   Iterative
 Iterative method          :   Jacobi
 Convergence threshold     :    1.0D-08
 InCore Storage            :          F
 FMM                       :      F   F
 Number of Multipoles      :    5570
 Number of induced dipoles :    5570
 @ EneQMQ -1.0443772856809043E-002
 @ EneQMDip  1.1167651097136356E-003
 @ EneQMQuad  9.2144481942501796E-004
 @ EneQMDipInd  -1.201654166629766     
 Polarisation energy:  -1.201654166629766     
 Polarisation energy (conv):  -754.0493743648442     
 E= -804.258549295248     Delta-E=       -0.001018007746 Rises=F Damp=F
 DIIS: error= 7.50D-04 at cycle   6 NSaved=   6.
 NSaved= 6 IEnMin= 6 EnMin= -804.258549295248     IErMin= 6 ErrMin= 7.50D-04
 ErrMax= 7.50D-04  0.00D+00 EMaxC= 1.00D-01 BMatC= 1.08D-04 BMatP= 1.05D-03
 IDIUse=3 WtCom= 9.92D-01 WtEn= 7.50D-03
 Coeff-Com:  0.223D-02-0.902D-02 0.486D-01 0.111D+00 0.324D+00 0.523D+00
 Coeff-En:   0.000D+00 0.000D+00 0.000D+00 0.000D+00 0.583D-01 0.942D+00
 Coeff:      0.221D-02-0.896D-02 0.482D-01 0.111D+00 0.322D+00 0.526D+00
 Gap=     0.142 Goal=   None    Shift=    0.000
 RMSDP=9.00D-05 MaxDP=2.49D-03 DE=-1.02D-03 OVMax= 4.13D-03

 Cycle   7  Pass 0  IDiag  1:
 RMSU=  6.21D-05    CP:  9.85D-01  7.94D-01  5.92D-01  6.03D-01  5.90D-01
                    CP:  6.78D-01
 QM—MM driver wants a molecular dynamics.
 Solution method           :   Iterative
 Iterative method          :   Jacobi
 Convergence threshold     :    1.0D-08
 InCore Storage            :          F
 FMM                       :      F   F
 Number of Multipoles      :    5570
 Number of induced dipoles :    5570
 @ EneQMQ -1.0545894915216760E-002
 @ EneQMDip  1.1913387235606399E-003
 @ EneQMQuad  8.7272942404701499E-004
 @ EneQMDipInd  -1.201661279825893     
 Polarisation energy:  -1.201661279825893     
 Polarisation energy (conv):  -754.0538379628060     
 E= -804.258648752017     Delta-E=       -0.000099456769 Rises=F Damp=F
 DIIS: error= 2.34D-04 at cycle   7 NSaved=   7.
 NSaved= 7 IEnMin= 7 EnMin= -804.258648752017     IErMin= 7 ErrMin= 2.34D-04
 ErrMax= 2.34D-04  0.00D+00 EMaxC= 1.00D-01 BMatC= 1.33D-05 BMatP= 1.08D-04
 IDIUse=3 WtCom= 9.98D-01 WtEn= 2.34D-03
 Coeff-Com:  0.134D-03-0.361D-02 0.479D-02 0.166D-01 0.106D+00 0.314D+00
 Coeff-Com:  0.562D+00
 Coeff-En:   0.000D+00 0.000D+00 0.000D+00 0.000D+00 0.000D+00 0.569D-01
 Coeff-En:   0.943D+00
 Coeff:      0.134D-03-0.360D-02 0.478D-02 0.166D-01 0.106D+00 0.313D+00
 Coeff:      0.563D+00
 Gap=     0.142 Goal=   None    Shift=    0.000
 RMSDP=3.03D-05 MaxDP=5.78D-04 DE=-9.95D-05 OVMax= 9.76D-04

 Cycle   8  Pass 0  IDiag  1:
 RMSU=  1.50D-05    CP:  9.85D-01  7.94D-01  5.92D-01  6.05D-01  6.00D-01
                    CP:  7.11D-01  6.00D-01
 QM—MM driver wants a molecular dynamics.
 Solution method           :   Iterative
 Iterative method          :   Jacobi
 Convergence threshold     :    1.0D-08
 InCore Storage            :          F
 FMM                       :      F   F
 Number of Multipoles      :    5570
 Number of induced dipoles :    5570
 @ EneQMQ -1.0539110280863687E-002
 @ EneQMDip  1.1750591002258855E-003
 @ EneQMQuad  8.8391132934876498E-004
 @ EneQMDipInd  -1.201668174482144     
 Polarisation energy:  -1.201668174482144     
 Polarisation energy (conv):  -754.0581644249255     
 E= -804.258659904906     Delta-E=       -0.000011152889 Rises=F Damp=F
 DIIS: error= 7.80D-05 at cycle   8 NSaved=   8.
 NSaved= 8 IEnMin= 8 EnMin= -804.258659904906     IErMin= 8 ErrMin= 7.80D-05
 ErrMax= 7.80D-05  0.00D+00 EMaxC= 1.00D-01 BMatC= 1.44D-06 BMatP= 1.33D-05
 IDIUse=1 WtCom= 1.00D+00 WtEn= 0.00D+00
 Coeff-Com: -0.750D-04-0.136D-02-0.799D-03 0.102D-02 0.415D-01 0.156D+00
 Coeff-Com:  0.345D+00 0.458D+00
 Coeff:     -0.750D-04-0.136D-02-0.799D-03 0.102D-02 0.415D-01 0.156D+00
 Coeff:      0.345D+00 0.458D+00
 Gap=     0.142 Goal=   None    Shift=    0.000
 RMSDP=8.38D-06 MaxDP=2.05D-04 DE=-1.12D-05 OVMax= 3.38D-04

 Initial convergence to 1.0D-05 achieved.  Increase integral accuracy.
 Cycle   9  Pass 1  IDiag  1:
 QM—MM driver wants a molecular dynamics.
 Solution method           :   Iterative
 Iterative method          :   Jacobi
 Convergence threshold     :    1.0D-08
 InCore Storage            :          F
 FMM                       :      F   F
 Number of Multipoles      :    5570
 Number of induced dipoles :    5570
 @ EneQMQ -1.0526496072432084E-002
 @ EneQMDip  1.1794345783117481E-003
 @ EneQMQuad  8.7745399024549719E-004
 @ EneQMDipInd  -1.201667862152933     
 Polarisation energy:  -1.201667862152933     
 Polarisation energy (conv):  -754.0579684353864     
 E= -804.258699516175     Delta-E=       -0.000039611269 Rises=F Damp=F
 DIIS: error= 3.77D-05 at cycle   1 NSaved=   1.
 NSaved= 1 IEnMin= 1 EnMin= -804.258699516175     IErMin= 1 ErrMin= 3.77D-05
 ErrMax= 3.77D-05  0.00D+00 EMaxC= 1.00D-01 BMatC= 3.80D-07 BMatP= 3.80D-07
 IDIUse=1 WtCom= 1.00D+00 WtEn= 0.00D+00
 Coeff-Com:  0.100D+01
 Coeff:      0.100D+01
 Gap=     0.142 Goal=   None    Shift=    0.000
 RMSDP=8.38D-06 MaxDP=2.05D-04 DE=-3.96D-05 OVMax= 1.68D-04

 Cycle  10  Pass 1  IDiag  1:
 RMSU=  4.59D-05    CP:  1.00D+00
 QM—MM driver wants a molecular dynamics.
 Solution method           :   Iterative
 Iterative method          :   Jacobi
 Convergence threshold     :    1.0D-08
 InCore Storage            :          F
 FMM                       :      F   F
 Number of Multipoles      :    5570
 Number of induced dipoles :    5570
 @ EneQMQ -1.0531925829569013E-002
 @ EneQMDip  1.1790755409647709E-003
 @ EneQMQuad  8.7766900659037850E-004
 @ EneQMDipInd  -1.201668445612679     
 Polarisation energy:  -1.201668445612679     
 Polarisation energy (conv):  -754.0583345619053     
 E= -804.258699871113     Delta-E=       -0.000000354938 Rises=F Damp=F
 DIIS: error= 2.79D-05 at cycle   2 NSaved=   2.
 NSaved= 2 IEnMin= 2 EnMin= -804.258699871113     IErMin= 2 ErrMin= 2.79D-05
 ErrMax= 2.79D-05  0.00D+00 EMaxC= 1.00D-01 BMatC= 1.04D-07 BMatP= 3.80D-07
 IDIUse=1 WtCom= 1.00D+00 WtEn= 0.00D+00
 Coeff-Com:  0.262D+00 0.738D+00
 Coeff:      0.262D+00 0.738D+00
 Gap=     0.142 Goal=   None    Shift=    0.000
 RMSDP=4.86D-06 MaxDP=1.69D-04 DE=-3.55D-07 OVMax= 1.89D-04

 Cycle  11  Pass 1  IDiag  1:
 RMSU=  4.83D-06    CP:  1.00D+00  9.98D-01
 QM—MM driver wants a molecular dynamics.
 Solution method           :   Iterative
 Iterative method          :   Jacobi
 Convergence threshold     :    1.0D-08
 InCore Storage            :          F
 FMM                       :      F   F
 Number of Multipoles      :    5570
 Number of induced dipoles :    5570
 @ EneQMQ -1.0519886736878254E-002
 @ EneQMDip  1.1787273485016723E-003
 @ EneQMQuad  8.7713108826623326E-004
 @ EneQMDipInd  -1.201667012693773     
 Polarisation energy:  -1.201667012693773     
 Polarisation energy (conv):  -754.0574353917160     
 E= -804.258699833251     Delta-E=        0.000000037862 Rises=F Damp=F
 DIIS: error= 3.15D-05 at cycle   3 NSaved=   3.
 NSaved= 3 IEnMin= 2 EnMin= -804.258699871113     IErMin= 2 ErrMin= 2.79D-05
 ErrMax= 3.15D-05  0.00D+00 EMaxC= 1.00D-01 BMatC= 1.50D-07 BMatP= 1.04D-07
 IDIUse=1 WtCom= 1.00D+00 WtEn= 0.00D+00
 Coeff-Com: -0.409D-02 0.547D+00 0.457D+00
 Coeff:     -0.409D-02 0.547D+00 0.457D+00
 Gap=     0.142 Goal=   None    Shift=    0.000
 RMSDP=2.85D-06 MaxDP=1.12D-04 DE= 3.79D-08 OVMax= 9.66D-05

 Cycle  12  Pass 1  IDiag  1:
 RMSU=  7.78D-07    CP:  1.00D+00  1.01D+00  4.49D-01
 QM—MM driver wants a molecular dynamics.
 Solution method           :   Iterative
 Iterative method          :   Jacobi
 Convergence threshold     :    1.0D-08
 InCore Storage            :          F
 FMM                       :      F   F
 Number of Multipoles      :    5570
 Number of induced dipoles :    5570
 @ EneQMQ -1.0527066177566078E-002
 @ EneQMDip  1.1792109562657235E-003
 @ EneQMQuad  8.7716070908374516E-004
 @ EneQMDipInd  -1.201667992444558     
 Polarisation energy:  -1.201667992444558     
 Polarisation energy (conv):  -754.0580501946160     
 E= -804.258699964531     Delta-E=       -0.000000131279 Rises=F Damp=F
 DIIS: error= 3.22D-06 at cycle   4 NSaved=   4.
 NSaved= 4 IEnMin= 4 EnMin= -804.258699964531     IErMin= 4 ErrMin= 3.22D-06
 ErrMax= 3.22D-06  0.00D+00 EMaxC= 1.00D-01 BMatC= 2.87D-09 BMatP= 1.04D-07
 IDIUse=1 WtCom= 1.00D+00 WtEn= 0.00D+00
 Coeff-Com: -0.767D-02 0.326D+00 0.283D+00 0.399D+00
 Coeff:     -0.767D-02 0.326D+00 0.283D+00 0.399D+00
 Gap=     0.142 Goal=   None    Shift=    0.000
 RMSDP=4.02D-07 MaxDP=1.13D-05 DE=-1.31D-07 OVMax= 1.37D-05

 QM—MM driver wants a molecular dynamics.
 Solution method           :   Iterative
 Iterative method          :   Jacobi
 Convergence threshold     :    1.0D-08
 InCore Storage            :          F
 FMM                       :      F   F
 Number of Multipoles      :    5570
 Number of induced dipoles :    5570
 @ EneQMQ -1.0526508831329979E-002
 @ EneQMDip  1.1788995451432892E-003
 @ EneQMQuad  8.7741768480137307E-004
 @ EneQMDipInd  -1.201667897529868     
 Polarisation energy:  -1.201667897529868     
 Polarisation energy (conv):  -754.0579906347484     
 SCF Done:  E(RB3LYP) =  -804.258699965     A.U. after   12 cycles
            NFock= 12  Conv=0.40D-06     -V/T= 2.0063
 KE= 7.991882189692D+02 PE=-4.277428640023D+03 EE= 1.470915379446D+03
 Leave Link  502 at Tue Apr 18 16:47:00 2017, MaxMem=  7340032000 cpu:            1009.6 elap:              63.4
 (Enter /cm/shared/apps/gaussian/gdvH36/gdv/l601.exe)
 Copying SCF densities to generalized density rwf, IOpCl= 0 IROHF=0.

 **********************************************************************

            Population analysis using the SCF density.

 **********************************************************************

 Alpha  occ. eigenvalues --  -19.23669 -19.18717 -19.15273 -10.29195 -10.29031
 Alpha  occ. eigenvalues --  -10.28331 -10.26774 -10.22247 -10.22122 -10.21431
 Alpha  occ. eigenvalues --  -10.21328 -10.20665 -10.20583 -10.20473 -10.20214
 Alpha  occ. eigenvalues --  -10.20004 -10.19913 -10.19848  -1.14190  -1.11388
 Alpha  occ. eigenvalues --   -1.06809  -0.90168  -0.87726  -0.82409  -0.79787
 Alpha  occ. eigenvalues --   -0.78166  -0.77064  -0.75258  -0.68400  -0.66929
 Alpha  occ. eigenvalues --   -0.62989  -0.61787  -0.61189  -0.59337  -0.56622
 Alpha  occ. eigenvalues --   -0.55111  -0.52851  -0.50852  -0.49104  -0.48969
 Alpha  occ. eigenvalues --   -0.47684  -0.46548  -0.46200  -0.44728  -0.44676
 Alpha  occ. eigenvalues --   -0.43957  -0.43505  -0.40798  -0.40531  -0.40080
 Alpha  occ. eigenvalues --   -0.38240  -0.38029  -0.36819  -0.36505  -0.36328
 Alpha  occ. eigenvalues --   -0.34004  -0.29706  -0.28268  -0.28020  -0.27532
 Alpha  occ. eigenvalues --   -0.25990  -0.22061
 Alpha virt. eigenvalues --   -0.07854  -0.03604  -0.01256  -0.00645   0.01585
 Alpha virt. eigenvalues --    0.06935   0.08314   0.08697   0.08919   0.11845
 Alpha virt. eigenvalues --    0.12970   0.13614   0.15102   0.15529   0.16299
 Alpha virt. eigenvalues --    0.17704   0.18066   0.18576   0.19485   0.20756
 Alpha virt. eigenvalues --    0.24146   0.24859   0.25473   0.28377   0.29211
 Alpha virt. eigenvalues --    0.30151   0.31554   0.32102   0.32768   0.33696
 Alpha virt. eigenvalues --    0.35258   0.37984   0.41872   0.44630   0.47280
 Alpha virt. eigenvalues --    0.47354   0.50039   0.51101   0.52243   0.52590
 Alpha virt. eigenvalues --    0.53542   0.54715   0.55720   0.56397   0.56576
 Alpha virt. eigenvalues --    0.57843   0.58205   0.58685   0.59356   0.59437
 Alpha virt. eigenvalues --    0.60837   0.60910   0.62058   0.62423   0.63119
 Alpha virt. eigenvalues --    0.63904   0.64011   0.64787   0.65031   0.65645
 Alpha virt. eigenvalues --    0.66009   0.66762   0.67248   0.70462   0.71464
 Alpha virt. eigenvalues --    0.72314   0.75127   0.77000   0.78447   0.79536
 Alpha virt. eigenvalues --    0.81994   0.83078   0.83465   0.84337   0.85794
 Alpha virt. eigenvalues --    0.86417   0.88448   0.90046   0.90593   0.92794
 Alpha virt. eigenvalues --    0.93560   0.94516   0.95147   0.97017   0.97280
 Alpha virt. eigenvalues --    0.99742   1.00359   1.01341   1.02866   1.04586
 Alpha virt. eigenvalues --    1.06485   1.09060   1.10166   1.11131   1.12449
 Alpha virt. eigenvalues --    1.13602   1.14773   1.18163   1.19936   1.20687
 Alpha virt. eigenvalues --    1.21947   1.23758   1.25534   1.27406   1.33252
 Alpha virt. eigenvalues --    1.34628   1.37229   1.40997   1.44098   1.45108
 Alpha virt. eigenvalues --    1.46381   1.48766   1.53285   1.63278   1.74479
 Alpha virt. eigenvalues --    1.80687   1.89080   1.96512   2.07602   2.21804
          Condensed to atoms (all electrons):
               1          2          3          4          5          6
     1  C    4.932192   0.487115  -0.025025  -0.044644  -0.047491   0.507374
     2  C    0.487115   4.985183   0.450062  -0.045833  -0.042076  -0.046345
     3  C   -0.025025   0.450062   5.627041   0.325931  -0.082567  -0.038438
     4  C   -0.044644  -0.045833   0.325931   4.884223   0.489921  -0.027655
     5  C   -0.047491  -0.042076  -0.082567   0.489921   5.032488   0.515438
     6  C    0.507374  -0.046345  -0.038438  -0.027655   0.515438   4.946469
     7  H    0.356173  -0.030704   0.004492   0.001022   0.003981  -0.033719
     8  H   -0.034256   0.356957  -0.043370   0.004221   0.000630   0.005497
     9  C    0.012273  -0.034214   0.021563  -0.019521   0.009916  -0.000594
    10  H    0.004014   0.000373   0.006721  -0.023381   0.337371  -0.035196
    11  H   -0.026833   0.004518   0.000820   0.004591  -0.033743   0.359052
    12  C    0.000029  -0.000359  -0.005851  -0.007964   0.001197   0.000008
    13  C   -0.000150   0.010820  -0.128272  -0.022031   0.000420  -0.000089
    14  C    0.000000   0.000016  -0.001288   0.003191   0.000274   0.000002
    15  C    0.000000   0.000000  -0.000050   0.000023   0.000005   0.000000
    16  C    0.000000   0.000000   0.000143   0.000086  -0.000075   0.000001
    17  C    0.000000   0.000000   0.000000   0.000001   0.000000   0.000000
    18  H    0.000000   0.000000  -0.000016   0.000003   0.000000   0.000000
    19  C    0.000000   0.000000   0.000001   0.000008  -0.000005   0.000000
    20  H    0.000000  -0.000001   0.000020   0.000065   0.000029   0.000001
    21  C    0.000000   0.000000   0.000000   0.000000   0.000000   0.000000
    22  H    0.000000   0.000000   0.000000   0.000000   0.000000   0.000000
    23  H    0.000000   0.000000   0.000000   0.000000   0.000000   0.000000
    24  H    0.000000   0.000000   0.000000   0.000000   0.000000   0.000000
    25  O    0.000022   0.003790  -0.076660   0.214418  -0.054499   0.003474
    26  O    0.000812   0.008272  -0.138214   0.003098  -0.000016  -0.000026
    27  O    0.000000  -0.000046   0.005408  -0.000051  -0.000002   0.000000
    28  H   -0.000001  -0.000063   0.005635  -0.000269   0.000000   0.000000
               7          8          9         10         11         12
     1  C    0.356173  -0.034256   0.012273   0.004014  -0.026833   0.000029
     2  C   -0.030704   0.356957  -0.034214   0.000373   0.004518  -0.000359
     3  C    0.004492  -0.043370   0.021563   0.006721   0.000820  -0.005851
     4  C    0.001022   0.004221  -0.019521  -0.023381   0.004591  -0.007964
     5  C    0.003981   0.000630   0.009916   0.337371  -0.033743   0.001197
     6  C   -0.033719   0.005497  -0.000594  -0.035196   0.359052   0.000008
     7  H    0.565395  -0.005208  -0.000179  -0.000138  -0.003746   0.000000
     8  H   -0.005208   0.562895  -0.007304   0.000015  -0.000179  -0.000077
     9  C   -0.000179  -0.007304   5.261902  -0.000176  -0.000003  -0.025388
    10  H   -0.000138   0.000015  -0.000176   0.579371  -0.004221   0.000240
    11  H   -0.003746  -0.000179  -0.000003  -0.004221   0.521737   0.000000
    12  C    0.000000  -0.000077  -0.025388   0.000240   0.000000   5.191618
    13  C    0.000002   0.000919   0.096241   0.000065   0.000000   0.147438
    14  C    0.000000   0.000000   0.010173  -0.000061   0.000000   0.231697
    15  C    0.000000   0.000000  -0.000089   0.000000   0.000000  -0.029019
    16  C    0.000000   0.000000  -0.000338  -0.000039   0.000000  -0.030381
    17  C    0.000000   0.000000  -0.000009   0.000000   0.000000   0.008316
    18  H    0.000000   0.000000   0.000604   0.000000   0.000000  -0.015219
    19  C    0.000000   0.000000  -0.000001   0.000001   0.000000   0.007072
    20  H    0.000000   0.000000   0.000025   0.000449   0.000000  -0.011516
    21  C    0.000000   0.000000   0.000000   0.000000   0.000000   0.000399
    22  H    0.000000   0.000000   0.000000   0.000000   0.000000  -0.000199
    23  H    0.000000   0.000000   0.000000   0.000000   0.000000  -0.000215
    24  H    0.000000   0.000000   0.000000   0.000000   0.000000  -0.000003
    25  O    0.000002  -0.000049  -0.011632  -0.001780  -0.000061   0.276451
    26  O    0.000003   0.008007   0.597171   0.000000   0.000000   0.004816
    27  O    0.000000   0.000003  -0.093758   0.000000   0.000000  -0.066696
    28  H    0.000000  -0.000019  -0.004430   0.000000   0.000000   0.006877
              13         14         15         16         17         18
     1  C   -0.000150   0.000000   0.000000   0.000000   0.000000   0.000000
     2  C    0.010820   0.000016   0.000000   0.000000   0.000000   0.000000
     3  C   -0.128272  -0.001288  -0.000050   0.000143   0.000000  -0.000016
     4  C   -0.022031   0.003191   0.000023   0.000086   0.000001   0.000003
     5  C    0.000420   0.000274   0.000005  -0.000075   0.000000   0.000000
     6  C   -0.000089   0.000002   0.000000   0.000001   0.000000   0.000000
     7  H    0.000002   0.000000   0.000000   0.000000   0.000000   0.000000
     8  H    0.000919   0.000000   0.000000   0.000000   0.000000   0.000000
     9  C    0.096241   0.010173  -0.000089  -0.000338  -0.000009   0.000604
    10  H    0.000065  -0.000061   0.000000  -0.000039   0.000000   0.000000
    11  H    0.000000   0.000000   0.000000   0.000000   0.000000   0.000000
    12  C    0.147438   0.231697  -0.029019  -0.030381   0.008316  -0.015219
    13  C    5.732597  -0.053219  -0.028436   0.014070   0.000158   0.004862
    14  C   -0.053219   4.980057   0.523547   0.470112  -0.026763  -0.023405
    15  C   -0.028436   0.523547   5.071892  -0.085005   0.486692   0.346025
    16  C    0.014070   0.470112  -0.085005   5.095190  -0.039581   0.005172
    17  C    0.000158  -0.026763   0.486692  -0.039581   4.965473  -0.039651
    18  H    0.004862  -0.023405   0.346025   0.005172  -0.039651   0.522338
    19  C   -0.000386  -0.031668  -0.041817   0.460787  -0.040504   0.000123
    20  H    0.000507  -0.029080   0.005200   0.358659   0.000322  -0.000133
    21  C   -0.000012  -0.031509  -0.053430  -0.053893   0.513773   0.004434
    22  H    0.000013   0.003341  -0.030438   0.000758   0.354889  -0.003986
    23  H    0.000001   0.003551   0.000600  -0.034628   0.003291   0.000010
    24  H    0.000000   0.000365   0.006008   0.005576  -0.039969  -0.000158
    25  O   -0.111228  -0.079172   0.002801   0.001690  -0.000056  -0.000013
    26  O   -0.143733  -0.000041  -0.000002   0.000000   0.000000   0.000003
    27  O    0.267835   0.004723  -0.013447   0.000100   0.000043   0.018480
    28  H   -0.065594  -0.000326   0.000253   0.000009  -0.000005   0.000027
              19         20         21         22         23         24
     1  C    0.000000   0.000000   0.000000   0.000000   0.000000   0.000000
     2  C    0.000000  -0.000001   0.000000   0.000000   0.000000   0.000000
     3  C    0.000001   0.000020   0.000000   0.000000   0.000000   0.000000
     4  C    0.000008   0.000065   0.000000   0.000000   0.000000   0.000000
     5  C   -0.000005   0.000029   0.000000   0.000000   0.000000   0.000000
     6  C    0.000000   0.000001   0.000000   0.000000   0.000000   0.000000
     7  H    0.000000   0.000000   0.000000   0.000000   0.000000   0.000000
     8  H    0.000000   0.000000   0.000000   0.000000   0.000000   0.000000
     9  C   -0.000001   0.000025   0.000000   0.000000   0.000000   0.000000
    10  H    0.000001   0.000449   0.000000   0.000000   0.000000   0.000000
    11  H    0.000000   0.000000   0.000000   0.000000   0.000000   0.000000
    12  C    0.007072  -0.011516   0.000399  -0.000199  -0.000215  -0.000003
    13  C   -0.000386   0.000507  -0.000012   0.000013   0.000001   0.000000
    14  C   -0.031668  -0.029080  -0.031509   0.003341   0.003551   0.000365
    15  C   -0.041817   0.005200  -0.053430  -0.030438   0.000600   0.006008
    16  C    0.460787   0.358659  -0.053893   0.000758  -0.034628   0.005576
    17  C   -0.040504   0.000322   0.513773   0.354889   0.003291  -0.039969
    18  H    0.000123  -0.000133   0.004434  -0.003986   0.000010  -0.000158
    19  C    4.998130  -0.050454   0.523828   0.004018   0.360507  -0.038615
    20  H   -0.050454   0.577418   0.005523   0.000012  -0.005070  -0.000191
    21  C    0.523828   0.005523   4.901736  -0.035550  -0.026764   0.355792
    22  H    0.004018   0.000012  -0.035550   0.583796  -0.000124  -0.004547
    23  H    0.360507  -0.005070  -0.026764  -0.000124   0.525163  -0.003567
    24  H   -0.038615  -0.000191   0.355792  -0.004547  -0.003567   0.603020
    25  O    0.000945   0.007870  -0.000018   0.000000   0.000000   0.000000
    26  O    0.000000   0.000000   0.000000   0.000000   0.000000   0.000000
    27  O   -0.000004  -0.000001   0.000000  -0.000004   0.000000   0.000000
    28  H    0.000000   0.000000   0.000000   0.000000   0.000000   0.000000
              25         26         27         28
     1  C    0.000022   0.000812   0.000000  -0.000001
     2  C    0.003790   0.008272  -0.000046  -0.000063
     3  C   -0.076660  -0.138214   0.005408   0.005635
     4  C    0.214418   0.003098  -0.000051  -0.000269
     5  C   -0.054499  -0.000016  -0.000002   0.000000
     6  C    0.003474  -0.000026   0.000000   0.000000
     7  H    0.000002   0.000003   0.000000   0.000000
     8  H   -0.000049   0.008007   0.000003  -0.000019
     9  C   -0.011632   0.597171  -0.093758  -0.004430
    10  H   -0.001780   0.000000   0.000000   0.000000
    11  H   -0.000061   0.000000   0.000000   0.000000
    12  C    0.276451   0.004816  -0.066696   0.006877
    13  C   -0.111228  -0.143733   0.267835  -0.065594
    14  C   -0.079172  -0.000041   0.004723  -0.000326
    15  C    0.002801  -0.000002  -0.013447   0.000253
    16  C    0.001690   0.000000   0.000100   0.000009
    17  C   -0.000056   0.000000   0.000043  -0.000005
    18  H   -0.000013   0.000003   0.018480   0.000027
    19  C    0.000945   0.000000  -0.000004   0.000000
    20  H    0.007870   0.000000  -0.000001   0.000000
    21  C   -0.000018   0.000000   0.000000   0.000000
    22  H    0.000000   0.000000  -0.000004   0.000000
    23  H    0.000000   0.000000   0.000000   0.000000
    24  H    0.000000   0.000000   0.000000   0.000000
    25  O    8.406988   0.000087   0.001133  -0.000066
    26  O    0.000087   8.106365  -0.020744   0.053087
    27  O    0.001133  -0.020744   8.275450   0.240588
    28  H   -0.000066   0.053087   0.240588   0.364387
 Mulliken charges:
               1
     1  C   -0.121603
     2  C   -0.107465
     3  C    0.091913
     4  C    0.260552
     5  C   -0.131198
     6  C   -0.155253
     7  H    0.142626
     8  H    0.151316
     9  C    0.187766
    10  H    0.136372
    11  H    0.178068
    12  C    0.316730
    13  C    0.277203
    14  C    0.045483
    15  C   -0.161312
    16  C   -0.168412
    17  C   -0.146421
    18  H    0.180499
    19  C   -0.151969
    20  H    0.140345
    21  C   -0.104310
    22  H    0.128021
    23  H    0.177244
    24  H    0.116287
    25  O   -0.584437
    26  O   -0.478946
    27  O   -0.619011
    28  H    0.399910
 Sum of Mulliken charges =   0.00000
 Mulliken charges with hydrogens summed into heavy atoms:
               1
     1  C    0.021023
     2  C    0.043852
     3  C    0.091913
     4  C    0.260552
     5  C    0.005174
     6  C    0.022815
     9  C    0.187766
    12  C    0.316730
    13  C    0.277203
    14  C    0.045483
    15  C    0.019188
    16  C   -0.028067
    17  C   -0.018400
    19  C    0.025275
    21  C    0.011977
    25  O   -0.584437
    26  O   -0.478946
    27  O   -0.219102
 Electronic spatial extent (au):  <R**2>=        1187857.2274
 Charge=              0.0000 electrons
 Dipole moment (field-independent basis, Debye):
    X=             -2.7210    Y=             -0.4465    Z=              2.6352  Tot=              3.8141
 Quadrupole moment (field-independent basis, Debye-Ang):
   XX=           -277.8748   YY=           -132.1596   ZZ=             64.9083
   XY=            -95.1665   XZ=             10.3355   YZ=             67.0061
 Traceless Quadrupole moment (field-independent basis, Debye-Ang):
   XX=           -162.8328   YY=            -17.1175   ZZ=            179.9503
   XY=            -95.1665   XZ=             10.3355   YZ=             67.0061
 Octapole moment (field-independent basis, Debye-Ang**2):
  XXX=         -18389.0243  YYY=         -10474.3552  ZZZ=           -690.7102  XYY=          -6628.3592
  XXY=          -8682.9121  XXZ=          -4951.3370  XZZ=             61.9361  YZZ=           1681.5967
  YYZ=          -1300.3240  XYZ=            -54.8442
 Hexadecapole moment (field-independent basis, Debye-Ang**3):
 XXXX=       -1005431.1608 YYYY=        -591876.1192 ZZZZ=        -154935.9489 XXXY=        -557965.0578
 XXXZ=        -423440.1995 YYYX=        -406229.7875 YYYZ=        -220798.5184 ZZZX=         -77666.8065
 ZZZY=         -24515.1903 XXYY=        -378941.5863 XXZZ=        -145343.2490 YYZZ=         -40891.3772
 XXYZ=        -157784.1440 YYXZ=        -107098.7633 ZZXY=          -6073.1847
 N-N= 1.203066341643D+03 E-N=-4.277428713352D+03  KE= 7.991882189692D+02
 No NMR shielding tensors so no spin-rotation constants.
 Leave Link  601 at Tue Apr 18 16:47:01 2017, MaxMem=  7340032000 cpu:               2.7 elap:               0.2
 (Enter /home/daniele/workdir/XLBOMD//exe-dir/l701.exe)
 Compute integral first derivatives.
 ... and contract with generalized density number  0.
 Doing step                        0of dynamics.
 FxMM: 
                 1             2             3             4             5 
      1   0.101512D-03  0.104377D-02  0.447368D-03 -0.240832D-04 -0.803108D-03
      2   0.163066D-03 -0.624015D-03  0.569210D-03 -0.516234D-03 -0.449624D-03
      3  -0.217396D-02  0.260795D-02  0.433870D-03  0.751999D-04 -0.390206D-03
                 6             7             8             9            10 
      1  -0.106623D-03  0.171931D-03 -0.331467D-03 -0.773630D-04  0.160276D-03
      2  -0.124651D-03  0.147240D-03 -0.279351D-03  0.266363D-03  0.340768D-04
      3  -0.206504D-04  0.824112D-03 -0.258419D-03 -0.350443D-03 -0.273511D-03
                11            12            13            14            15 
      1   0.148061D-02 -0.247661D-02 -0.317569D-03 -0.157720D-04  0.239716D-03
      2   0.534825D-03 -0.354410D-03 -0.877752D-04  0.709212D-04 -0.340535D-03
      3   0.928018D-03 -0.119485D-02 -0.159684D-03  0.332652D-03 -0.373802D-04
                16            17            18            19            20 
      1   0.743738D-03 -0.409681D-03  0.181921D-03  0.218412D-03  0.274656D-03
      2   0.568199D-03  0.986043D-04 -0.267267D-03  0.114559D-03 -0.167982D-04
      3   0.793407D-04 -0.552812D-04 -0.697499D-04 -0.250028D-04  0.383908D-03
                21            22            23            24            25 
      1  -0.532550D-03  0.121057D-02  0.146132D-03 -0.252101D-03 -0.194266D-03
      2   0.871478D-03 -0.124398D-02 -0.651882D-04 -0.118114D-03 -0.129340D-03
      3   0.161019D-02 -0.184314D-02 -0.113611D-02  0.255848D-03  0.762467D-03
                26            27            28            29            30 
      1   0.281771D-03  0.616071D-04 -0.108023D-04 -0.163997D-03  0.408737D-04
      2   0.552513D-04 -0.205291D-03  0.210133D-03  0.536004D-04 -0.296092D-04
      3   0.489870D-03 -0.266626D-03  0.300192D-05  0.118094D-03  0.517340D-04
                31            32            33            34            35 
      1   0.154467D-02 -0.285357D-02 -0.261132D-03 -0.239338D-03  0.106239D-03
      2  -0.114509D-02  0.284509D-02  0.482894D-03 -0.473149D-03 -0.150532D-03
      3   0.329167D-03 -0.774229D-03 -0.245696D-03  0.651343D-04  0.149486D-03
                36            37            38            39            40 
      1   0.165811D-04 -0.600287D-03  0.677446D-06  0.114500D-02  0.172137D-03
      2  -0.698977D-03  0.183509D-03  0.186640D-03  0.430318D-03 -0.441065D-05
      3   0.301271D-03 -0.242196D-03 -0.665947D-05  0.815245D-04  0.156488D-03
                41            42            43            44            45 
      1  -0.126334D-02  0.287956D-02  0.953670D-03 -0.450854D-03 -0.545342D-03
      2  -0.762889D-03  0.162783D-02 -0.162363D-05  0.466089D-04  0.101676D-03
      3  -0.175048D-03 -0.122918D-02 -0.169497D-04  0.136058D-03  0.120974D-03
                46            47            48            49            50 
      1  -0.123099D-02 -0.803012D-05  0.127596D-03  0.285875D-03 -0.369561D-03
      2   0.953577D-03 -0.316116D-03 -0.415158D-04 -0.334918D-04  0.447515D-04
      3   0.353142D-03 -0.298629D-03  0.188590D-03  0.259225D-03  0.412890D-03
                51            52            53            54            55 
      1  -0.158427D-02  0.144057D-02  0.540207D-03 -0.834968D-04 -0.213887D-03
      2   0.380631D-03 -0.249349D-02 -0.327395D-03  0.372408D-04  0.428266D-03
      3   0.156235D-03 -0.863072D-03 -0.194577D-03 -0.604894D-04  0.235136D-03
                56            57            58            59            60 
      1  -0.467540D-03  0.330548D-03 -0.303318D-03  0.101487D-04  0.139963D-03
      2  -0.184372D-03 -0.289422D-03 -0.168547D-03  0.169700D-03  0.158295D-03
      3  -0.374337D-03 -0.297619D-03  0.397206D-03  0.331390D-03  0.341796D-04
                61            62            63            64            65 
      1   0.171642D-02 -0.153217D-02 -0.324310D-03 -0.416636D-04  0.148682D-04
      2   0.405894D-03  0.682669D-04 -0.898819D-04 -0.136150D-03  0.111495D-03
      3  -0.671330D-03  0.105509D-02  0.607810D-03 -0.150019D-03 -0.275068D-03
                66            67            68            69            70 
      1  -0.268664D-03 -0.886102D-03  0.967492D-04  0.247424D-03  0.749045D-03
      2   0.535656D-03 -0.328309D-04 -0.140727D-03 -0.138645D-03 -0.129895D-02
      3  -0.106046D-02  0.512801D-03 -0.301575D-03  0.878630D-04 -0.481884D-03
                71            72            73            74            75 
      1   0.475453D-03  0.745955D-03 -0.289942D-03 -0.509414D-03  0.147958D-03
      2  -0.216943D-02  0.259894D-02  0.659692D-03 -0.884630D-03 -0.391296D-04
      3   0.605575D-03  0.364594D-03 -0.234131D-03 -0.118713D-03  0.825633D-04
                76            77            78            79            80 
      1   0.558983D-03 -0.182921D-03  0.854176D-03 -0.782829D-04  0.607734D-05
      2  -0.133367D-03  0.627351D-03 -0.650720D-03 -0.196974D-03 -0.549684D-03
      3  -0.118145D-04 -0.326369D-03  0.252186D-03 -0.709167D-04 -0.237859D-03
                81            82            83            84            85 
      1   0.682376D-03 -0.882805D-03 -0.267409D-03  0.406356D-03  0.190494D-03
      2   0.634734D-03 -0.115126D-02 -0.506443D-03  0.155367D-03  0.248206D-03
      3  -0.311275D-03  0.111034D-02 -0.149075D-03  0.181086D-03  0.107759D-03
                86            87            88            89            90 
      1   0.310333D-03 -0.129910D-03  0.731791D-04 -0.961821D-05 -0.800528D-05
      2   0.467424D-03 -0.271246D-03  0.111555D-05  0.109513D-03  0.183055D-03
      3   0.385145D-03  0.661644D-04  0.658297D-04 -0.737420D-04 -0.126670D-03
                91            92            93            94            95 
      1   0.757892D-03 -0.164040D-02 -0.427416D-03  0.138408D-03  0.121700D-03
      2  -0.593337D-03  0.915260D-03  0.365484D-04  0.721680D-04  0.435234D-04
      3   0.797062D-03 -0.210468D-03 -0.260063D-03  0.226169D-03 -0.110609D-04
                96            97            98            99           100 
      1   0.222489D-03 -0.617118D-03  0.193952D-03  0.234847D-03  0.477320D-03
      2   0.129777D-03  0.289355D-03 -0.656398D-04 -0.406763D-03  0.780573D-04
      3   0.152594D-03 -0.327525D-03  0.697636D-04 -0.143841D-03  0.158517D-04
               101           102           103           104           105 
      1  -0.951571D-03  0.129710D-02  0.133787D-03  0.145550D-03 -0.682926D-05
      2  -0.303792D-03  0.109681D-02  0.307498D-04 -0.270014D-04  0.157236D-04
      3  -0.109077D-02  0.265552D-02  0.540817D-03 -0.197491D-03 -0.182408D-03
               106           107           108           109           110 
      1  -0.800800D-05  0.305213D-03 -0.285306D-03 -0.569711D-04 -0.285808D-03
      2  -0.948294D-04  0.636612D-04  0.198891D-03  0.115175D-04  0.164537D-03
      3  -0.411618D-03  0.497764D-03 -0.125925D-03 -0.942922D-04 -0.248100D-03
               111           112           113           114           115 
      1  -0.404887D-03  0.611336D-03  0.770610D-04  0.261247D-03 -0.411399D-03
      2  -0.862948D-04 -0.819766D-03 -0.732859D-04 -0.482606D-03 -0.276014D-03
      3  -0.203606D-02  0.304106D-02  0.734952D-03 -0.104948D-02  0.308977D-04
               116           117           118           119           120 
      1  -0.123335D-03 -0.151409D-04  0.141919D-03  0.781811D-04 -0.107990D-03
      2   0.245730D-03 -0.115751D-03  0.247899D-03  0.117117D-03  0.261154D-04
      3  -0.178398D-03  0.754831D-03 -0.287888D-03 -0.917320D-03 -0.119077D-03
               121           122           123           124           125 
      1   0.114060D-02 -0.289776D-02 -0.146201D-03  0.896313D-04 -0.237785D-05
      2   0.786451D-03 -0.908620D-03 -0.469184D-03  0.120488D-03  0.399582D-03
      3  -0.259023D-04 -0.916466D-03  0.271409D-03  0.219016D-04 -0.184061D-03
               126           127           128           129           130 
      1   0.249803D-03 -0.168990D-03  0.445224D-04  0.233595D-03 -0.135987D-03
      2   0.666990D-03 -0.798666D-03  0.223773D-03  0.665657D-03  0.925645D-03
      3  -0.280380D-03 -0.125398D-04 -0.980935D-04 -0.998446D-04  0.328408D-03
               131           132           133           134           135 
      1  -0.164801D-02  0.220373D-02  0.675775D-03 -0.394693D-03 -0.159965D-03
      2   0.185031D-03 -0.414130D-03  0.451313D-03 -0.235347D-03 -0.132905D-02
      3  -0.112455D-03  0.240356D-03  0.284186D-03 -0.309029D-03  0.452524D-04
               136           137           138           139           140 
      1  -0.960705D-04  0.465567D-03 -0.196723D-03 -0.165392D-03 -0.105565D-03
      2   0.126206D-03  0.346714D-03 -0.312199D-04 -0.342621D-03  0.255403D-04
      3  -0.236060D-03 -0.880897D-04  0.221029D-03  0.408161D-04 -0.638305D-04
               141           142           143           144           145 
      1  -0.475126D-03  0.786864D-03 -0.757930D-04 -0.756320D-04  0.590012D-03
      2  -0.562825D-03 -0.224108D-03  0.224935D-04 -0.443323D-04 -0.671683D-04
      3   0.105436D-02 -0.149166D-02 -0.502060D-03  0.123245D-03  0.157895D-03
               146           147           148           149           150 
      1   0.265428D-04  0.123745D-03 -0.452974D-03 -0.585457D-04 -0.682435D-04
      2   0.138181D-04  0.101111D-03  0.613263D-04 -0.123145D-03  0.692636D-04
      3   0.185121D-03 -0.214180D-03 -0.458550D-04 -0.102768D-04  0.165685D-03
               151           152           153           154           155 
      1   0.271086D-03 -0.638232D-03  0.137561D-03 -0.244903D-04 -0.127138D-03
      2   0.131766D-03 -0.254744D-03 -0.988849D-04 -0.779261D-04  0.752956D-04
      3   0.414769D-03 -0.446781D-03 -0.336274D-03  0.152989D-03  0.205359D-03
               156           157           158           159           160 
      1  -0.270584D-03 -0.591295D-04  0.204064D-04 -0.352680D-04  0.697460D-04
      2   0.138780D-03 -0.423681D-04  0.660960D-04 -0.107875D-04  0.195309D-04
      3   0.326289D-03 -0.151942D-03  0.570308D-04  0.544641D-04  0.301736D-04
               161           162           163           164           165 
      1   0.209096D-05  0.117628D-03 -0.163738D-03  0.244883D-03  0.215029D-03
      2   0.114301D-04 -0.138167D-03 -0.384934D-03 -0.536876D-04  0.239627D-03
      3   0.497022D-03 -0.177840D-03 -0.153014D-03  0.150985D-03  0.209794D-03
               166           167           168           169           170 
      1  -0.366524D-04  0.167241D-03 -0.291493D-04 -0.731893D-05 -0.577734D-04
      2   0.261720D-03 -0.300371D-03  0.385048D-04  0.415063D-04  0.966109D-05
      3   0.119665D-03 -0.165633D-03 -0.423167D-04  0.606670D-04  0.442021D-03
               171           172           173           174           175 
      1   0.492695D-03 -0.347464D-03 -0.228051D-03 -0.385694D-03  0.545828D-05
      2   0.103714D-02 -0.102127D-02 -0.291829D-04  0.347178D-03 -0.404861D-03
      3  -0.106869D-02  0.158761D-02 -0.922858D-04 -0.190719D-03 -0.654233D-03
               176           177           178           179           180 
      1   0.177402D-03 -0.164746D-03  0.168520D-04  0.344396D-03  0.948058D-04
      2  -0.280195D-03 -0.652962D-03  0.715873D-04  0.459518D-03  0.560578D-04
      3  -0.405182D-03  0.456699D-03 -0.225181D-04  0.142552D-03 -0.326088D-03
               181           182           183           184           185 
      1  -0.431732D-03  0.715477D-03  0.554639D-03 -0.105066D-02  0.132851D-03
      2  -0.124763D-02  0.257842D-02  0.385825D-03 -0.417462D-03 -0.489505D-04
      3   0.948945D-03  0.127870D-03 -0.134198D-03 -0.390875D-04  0.184635D-03
               186           187           188           189           190 
      1  -0.414597D-03  0.354211D-03 -0.148027D-03 -0.214519D-03 -0.443315D-03
      2  -0.307398D-04  0.483865D-03 -0.245798D-03 -0.769054D-04 -0.356009D-03
      3   0.128561D-03 -0.725177D-03  0.227855D-03 -0.374981D-06  0.147838D-02
               191           192           193           194           195 
      1  -0.144747D-02  0.254229D-02  0.326164D-03 -0.365765D-03 -0.285918D-03
      2   0.145791D-02 -0.172834D-02 -0.361082D-03  0.922251D-04 -0.537879D-04
      3   0.215919D-03  0.899798D-04  0.356452D-03 -0.310318D-03  0.550586D-04
               196           197           198           199           200 
      1  -0.180479D-03  0.403166D-03 -0.169357D-02 -0.201353D-03  0.242642D-03
      2   0.424419D-03 -0.599239D-03  0.100949D-02  0.113671D-03  0.350528D-03
      3  -0.285528D-03 -0.271693D-03  0.132240D-03  0.196268D-03  0.274167D-03
               201           202           203           204           205 
      1  -0.257378D-03 -0.243291D-03 -0.124378D-03  0.156647D-03  0.208991D-04
      2  -0.130134D-02  0.230347D-02  0.185458D-03 -0.258373D-03 -0.113466D-03
      3  -0.195046D-03  0.151844D-02  0.748551D-05 -0.112690D-03  0.233520D-03
               206           207           208           209           210 
      1   0.786919D-04 -0.104133D-03  0.317324D-03  0.949138D-04 -0.663600D-03
      2   0.915842D-05  0.208968D-03 -0.204628D-03  0.230329D-04  0.146417D-03
      3   0.168974D-04 -0.845665D-04  0.117779D-03 -0.777717D-04 -0.359249D-03
               211           212           213           214           215 
      1   0.110432D-03  0.574931D-03  0.394696D-04 -0.109469D-03 -0.131313D-03
      2   0.843818D-03 -0.194863D-02 -0.273217D-03 -0.952886D-04 -0.581477D-04
      3   0.222876D-03 -0.642912D-03  0.152885D-03  0.502445D-03 -0.106236D-03
               216           217           218           219           220 
      1  -0.256604D-03 -0.946985D-04  0.931685D-04  0.137670D-02 -0.180873D-03
      2  -0.150056D-04  0.225384D-03  0.120775D-03  0.727652D-03 -0.693510D-04
      3   0.267260D-04 -0.128264D-04  0.296366D-03  0.257185D-03  0.240640D-04
               221           222           223           224           225 
      1   0.259318D-03  0.244789D-03 -0.222406D-03 -0.748879D-04  0.740138D-03
      2  -0.116819D-02  0.176410D-02  0.117621D-02 -0.673128D-03 -0.903479D-03
      3  -0.772436D-03  0.130314D-02  0.238007D-03 -0.131615D-04 -0.913476D-04
               226           227           228           229           230 
      1  -0.112035D-03 -0.262141D-03 -0.396220D-04  0.218067D-04  0.122471D-03
      2  -0.576529D-03  0.550551D-03 -0.816888D-04 -0.102035D-03 -0.231709D-03
      3   0.707337D-04  0.240287D-03 -0.298994D-03 -0.568869D-04 -0.345205D-05
               231           232           233           234           235 
      1  -0.603604D-03  0.820432D-03  0.160601D-03 -0.205772D-04 -0.405126D-04
      2   0.661023D-03 -0.889866D-03 -0.261152D-03  0.108354D-03  0.767290D-04
      3  -0.510705D-04 -0.455430D-03 -0.650173D-05 -0.118728D-04 -0.988812D-05
               236           237           238           239           240 
      1  -0.382047D-03  0.339061D-03 -0.557627D-04 -0.250020D-03 -0.525551D-04
      2   0.409625D-03  0.654926D-05  0.426582D-03  0.731247D-04 -0.146240D-03
      3   0.175469D-03  0.327902D-03 -0.310792D-03 -0.196476D-03 -0.202301D-03
               241           242           243           244           245 
      1   0.135621D-02 -0.227996D-02 -0.875495D-04  0.100522D-04  0.236908D-04
      2  -0.117798D-02  0.233547D-02  0.283254D-03 -0.188312D-03 -0.399015D-04
      3   0.113904D-03  0.114325D-03 -0.319372D-03  0.181208D-03 -0.773125D-04
               246           247           248           249           250 
      1   0.133724D-03 -0.331049D-03  0.535311D-03  0.493137D-04 -0.144846D-04
      2   0.424983D-04  0.153292D-04  0.419954D-04  0.472333D-04 -0.169989D-03
      3   0.221042D-03  0.251927D-03 -0.405721D-03 -0.533788D-04 -0.907995D-04
               251           252           253           254           255 
      1  -0.149966D-02  0.261545D-02  0.320402D-03 -0.247548D-03 -0.219356D-04
      2   0.564011D-03 -0.236731D-04 -0.679475D-03  0.818233D-03  0.740734D-04
      3  -0.869986D-03  0.110287D-02 -0.452329D-03  0.184323D-03  0.146083D-03
               256           257           258           259           260 
      1  -0.218047D-03  0.313857D-03 -0.109106D-03 -0.202458D-03 -0.705408D-03
      2   0.471168D-03  0.188947D-03 -0.283141D-03 -0.727065D-04  0.583154D-03
      3   0.219822D-03  0.200134D-03 -0.126129D-03 -0.204701D-03 -0.211531D-03
               261           262           263           264           265 
      1   0.157466D-02 -0.182192D-02 -0.450471D-03  0.423279D-03 -0.604698D-04
      2  -0.115937D-02  0.151749D-02  0.130676D-03  0.503786D-04  0.766255D-04
      3  -0.548685D-03  0.252327D-03  0.198540D-03 -0.156921D-03  0.169673D-03
               266           267           268           269           270 
      1  -0.294244D-03 -0.401803D-03  0.200189D-04 -0.934396D-04  0.511138D-03
      2  -0.634365D-03  0.317184D-03 -0.273477D-03 -0.232359D-03 -0.261798D-04
      3  -0.497409D-03  0.147697D-03  0.255730D-03 -0.181731D-04 -0.332691D-03
               271           272           273           274           275 
      1  -0.178495D-03 -0.190476D-03  0.559683D-04  0.340111D-04  0.226345D-04
      2  -0.845193D-03  0.446333D-03  0.358264D-03 -0.119900D-03 -0.128004D-03
      3   0.916920D-04  0.841015D-03 -0.129541D-04  0.239285D-04 -0.573079D-04
               276           277           278           279           280 
      1   0.453269D-03  0.380606D-03 -0.285324D-03 -0.807597D-04 -0.200554D-03
      2  -0.463916D-03  0.273087D-03 -0.940200D-04 -0.918122D-04  0.369734D-04
      3   0.552038D-03  0.225718D-03 -0.148136D-03 -0.111451D-03 -0.931497D-04
               281           282           283           284           285 
      1   0.497492D-03 -0.638403D-03 -0.473947D-03  0.173015D-04  0.204078D-03
      2  -0.845786D-03  0.154075D-02  0.439754D-03 -0.101143D-03 -0.101724D-03
      3  -0.121956D-03 -0.307990D-03  0.146590D-03 -0.935004D-04 -0.778257D-04
               286           287           288           289           290 
      1   0.414594D-03  0.152943D-04 -0.940954D-04  0.133739D-03 -0.133445D-03
      2  -0.194147D-03  0.357340D-04 -0.112902D-03 -0.110882D-03  0.195206D-03
      3   0.108350D-03 -0.898891D-04  0.761673D-04 -0.115183D-03  0.117526D-03
               291           292           293           294           295 
      1   0.646410D-05  0.407406D-04 -0.252787D-03  0.349427D-03  0.354084D-03
      2  -0.880605D-03  0.104402D-02 -0.873035D-04  0.155114D-03 -0.424151D-04
      3   0.450982D-03 -0.226665D-02 -0.199145D-03  0.937249D-04  0.143508D-03
               296           297           298           299           300 
      1   0.281051D-04 -0.192229D-03 -0.376423D-04  0.298170D-04 -0.882368D-05
      2   0.140337D-03 -0.140803D-03  0.178133D-03  0.830580D-04 -0.814128D-04
      3  -0.481390D-05 -0.395340D-03  0.179302D-04  0.427695D-03  0.140964D-03
               301           302           303           304           305 
      1  -0.633304D-03  0.122346D-02  0.293991D-03  0.509801D-05  0.165753D-03
      2  -0.174251D-03  0.807108D-04  0.205673D-03 -0.302262D-03 -0.182859D-03
      3  -0.120678D-02  0.190230D-02  0.357867D-03 -0.203492D-03 -0.206261D-03
               306           307           308           309           310 
      1   0.914699D-04 -0.221921D-03  0.354432D-03  0.745906D-05  0.183099D-03
      2  -0.112049D-03  0.188602D-03 -0.906761D-03 -0.234691D-04 -0.115387D-03
      3  -0.360274D-03  0.555245D-03 -0.600235D-03 -0.373686D-04 -0.307128D-03
               311           312           313           314           315 
      1  -0.316856D-03  0.155109D-03  0.179059D-03 -0.226383D-03 -0.171630D-03
      2   0.178218D-02 -0.215910D-02 -0.404670D-03  0.171898D-03 -0.172926D-03
      3  -0.746378D-03  0.111392D-02  0.321121D-03  0.153541D-03 -0.108229D-03
               316           317           318           319           320 
      1  -0.406601D-03  0.148620D-03  0.425029D-03 -0.895261D-04  0.308326D-03
      2   0.420322D-03 -0.439646D-03 -0.239401D-04  0.150668D-03  0.848870D-03
      3  -0.624670D-03  0.102535D-02 -0.752209D-03 -0.690564D-03 -0.517329D-03
               321           322           323           324           325 
      1  -0.534454D-03  0.599951D-03  0.562083D-03 -0.183727D-03 -0.739384D-04
      2  -0.694828D-03  0.133833D-02 -0.117869D-03  0.822689D-05  0.176052D-03
      3  -0.111542D-04  0.154591D-03  0.690400D-04 -0.965201D-04  0.125279D-04
               326           327           328           329           330 
      1  -0.635845D-03  0.651022D-04 -0.752640D-05 -0.406523D-04  0.282338D-04
      2   0.556456D-03  0.139046D-03  0.532966D-05 -0.531265D-04 -0.148448D-03
      3  -0.208465D-04 -0.246918D-04  0.179082D-04 -0.468648D-04  0.758271D-04
               331           332           333           334           335 
      1  -0.452211D-03  0.299313D-03 -0.110771D-03  0.802622D-05 -0.174349D-03
      2  -0.141253D-03 -0.426574D-03 -0.430744D-04  0.344045D-04  0.739750D-04
      3  -0.690148D-03  0.597400D-03  0.542388D-03 -0.196125D-03 -0.239885D-03
               336           337           338           339           340 
      1  -0.303637D-04  0.198708D-03  0.161200D-04  0.182302D-03 -0.130725D-03
      2   0.178385D-03  0.270887D-04  0.534161D-04 -0.210168D-03  0.769723D-04
      3  -0.397201D-03  0.527274D-03 -0.140415D-03 -0.108749D-03 -0.581796D-03
               341           342           343           344           345 
      1   0.482746D-03 -0.279834D-03 -0.145635D-03  0.848602D-04  0.156665D-03
      2   0.101674D-02 -0.190084D-02 -0.166515D-03 -0.184296D-03  0.139693D-05
      3  -0.570947D-03  0.998199D-03  0.300210D-03 -0.210904D-03 -0.200963D-03
               346           347           348           349           350 
      1   0.130009D-03 -0.301713D-03  0.517478D-03  0.110072D-03  0.323767D-03
      2   0.116911D-03 -0.489001D-03  0.200831D-03  0.200741D-03 -0.289137D-04
      3  -0.678722D-03  0.350499D-03 -0.176654D-03 -0.134495D-04 -0.202573D-03
               351           352           353           354           355 
      1  -0.134322D-02  0.195496D-02  0.216681D-03  0.109435D-03 -0.421439D-04
      2  -0.554972D-03  0.160283D-02  0.116497D-03 -0.276951D-03 -0.686496D-04
      3  -0.267133D-03  0.422111D-03 -0.396276D-04  0.313898D-03  0.484066D-04
               356           357           358           359           360 
      1  -0.662121D-04  0.729353D-03 -0.597098D-03 -0.327717D-03 -0.175874D-03
      2  -0.238107D-04  0.113236D-03 -0.240384D-03  0.260037D-03 -0.134827D-03
      3  -0.148463D-03 -0.229673D-04  0.197965D-03  0.746523D-04 -0.285899D-03
               361           362           363           364           365 
      1   0.657551D-03 -0.213840D-02 -0.402615D-03  0.217413D-04  0.240533D-03
      2  -0.147833D-02  0.192164D-02  0.344290D-04  0.477410D-04  0.454819D-04
      3  -0.215589D-03 -0.758078D-03 -0.217343D-03  0.464023D-04  0.128873D-03
               366           367           368           369           370 
      1   0.376832D-03  0.696085D-04  0.337045D-04 -0.356292D-03 -0.534671D-04
      2   0.979627D-05  0.549742D-03 -0.131335D-03 -0.555550D-03  0.367045D-04
      3   0.130794D-03  0.675109D-04  0.266593D-03 -0.820274D-03 -0.855155D-04
               371           372           373           374           375 
      1  -0.697945D-03  0.901243D-03  0.824058D-05  0.484441D-04  0.502516D-03
      2  -0.875279D-03  0.647915D-03  0.168257D-03  0.243805D-03 -0.207860D-03
      3  -0.233860D-02  0.304974D-02  0.829447D-03 -0.159533D-03 -0.165493D-02
               376           377           378           379           380 
[...]
      2   0.683733D-03 -0.954181D-03 -0.752441D-04  0.354957D-03  0.206512D-03
      3  -0.669949D-03  0.172345D-02  0.379555D-04  0.915371D-05  0.636948D-04
              5486          5487          5488          5489          5490 
      1  -0.155697D-03  0.526543D-03 -0.524100D-03 -0.154349D-03 -0.236720D-03
      2   0.917413D-04 -0.411114D-03  0.186013D-03  0.187196D-03 -0.810912D-04
      3   0.206422D-03  0.254812D-03  0.467111D-04 -0.615644D-04 -0.752628D-04
              5491          5492          5493          5494          5495 
      1   0.135304D-02 -0.200463D-02 -0.189463D-03 -0.274109D-04  0.287884D-03
      2   0.718605D-03 -0.522989D-03  0.227053D-03  0.164205D-04 -0.272617D-03
      3   0.657278D-03 -0.726339D-03 -0.483491D-03  0.212468D-03  0.575224D-03
              5496          5497          5498          5499          5500 
      1  -0.325216D-05 -0.720226D-03  0.579536D-03  0.300115D-03  0.158831D-03
      2  -0.287814D-03 -0.128638D-03 -0.269691D-03 -0.436040D-04 -0.388574D-03
      3   0.103288D-03 -0.387660D-03  0.512320D-03  0.254358D-03 -0.509274D-03
              5501          5502          5503          5504          5505 
      1   0.113634D-02 -0.235542D-02 -0.217138D-03  0.532227D-04  0.118742D-02
      2   0.601485D-03  0.103233D-03 -0.484387D-03  0.683897D-03  0.607347D-03
      3  -0.765809D-03  0.148900D-02 -0.454062D-03  0.730939D-03 -0.114135D-02
              5506          5507          5508          5509          5510 
      1  -0.131006D-03 -0.125241D-03  0.115977D-03  0.185089D-03 -0.329709D-04
      2   0.170060D-03 -0.566727D-03  0.110306D-03  0.233647D-03  0.755804D-03
      3  -0.143387D-03  0.165766D-03 -0.579372D-05  0.171421D-03  0.168351D-03
              5511          5512          5513          5514          5515 
      1   0.223798D-02 -0.264603D-02 -0.791948D-03  0.803872D-03  0.382575D-03
      2  -0.130348D-02  0.270379D-02  0.579255D-03  0.888558D-04 -0.590045D-04
      3  -0.291400D-03  0.104274D-02 -0.167099D-03 -0.184726D-03  0.123238D-03
              5516          5517          5518          5519          5520 
      1   0.273545D-03 -0.456107D-03  0.231122D-03  0.116707D-03 -0.103184D-03
      2  -0.306336D-03  0.219721D-03  0.771013D-04 -0.431685D-04 -0.546111D-03
      3   0.228265D-03  0.685684D-04 -0.633969D-03  0.214763D-03 -0.195342D-03
              5521          5522          5523          5524          5525 
      1  -0.126680D-02  0.202384D-02  0.368793D-03 -0.175514D-03 -0.490553D-04
      2   0.562032D-03 -0.411076D-03  0.282148D-04  0.756119D-04  0.482575D-04
      3  -0.736610D-03  0.984690D-03  0.916994D-04  0.470813D-04  0.333752D-04
              5526          5527          5528          5529          5530 
      1  -0.117620D-03  0.542423D-03 -0.200542D-03 -0.817412D-03 -0.201832D-03
      2  -0.829220D-04 -0.317880D-03  0.414185D-03  0.841039D-03  0.177861D-03
      3  -0.892577D-04 -0.145018D-04  0.270548D-04 -0.662043D-03  0.187736D-03
              5531          5532          5533          5534          5535 
      1  -0.123041D-02  0.178071D-02 -0.216330D-03 -0.164690D-03  0.147965D-03
      2   0.398885D-03 -0.134292D-02 -0.103309D-03  0.106186D-03  0.840944D-04
      3   0.130780D-02 -0.204576D-02 -0.354714D-03  0.367784D-04  0.228672D-03
              5536          5537          5538          5539          5540 
      1   0.336027D-03  0.360933D-03 -0.904308D-04 -0.400067D-03  0.997958D-04
      2  -0.135807D-03 -0.243842D-03  0.460384D-03  0.416733D-03  0.977184D-04
      3   0.354051D-03 -0.268989D-03  0.273127D-03  0.676856D-04 -0.200310D-03
              5541          5542          5543          5544          5545 
      1   0.873512D-03 -0.111818D-02 -0.669602D-03  0.314799D-03  0.349590D-03
      2  -0.148891D-02  0.199780D-02  0.306198D-03 -0.158525D-03 -0.141103D-03
      3  -0.327751D-03  0.297344D-03  0.170996D-03 -0.219063D-03  0.413668D-04
              5546          5547          5548          5549          5550 
      1   0.196735D-03 -0.351914D-03  0.323399D-03  0.361269D-03  0.521300D-04
      2  -0.208577D-03  0.551592D-03 -0.141967D-03 -0.101605D-03 -0.371535D-03
      3   0.111686D-03 -0.298384D-04 -0.259149D-03  0.154093D-04  0.168124D-04
              5551          5552          5553          5554          5555 
      1   0.110558D-02 -0.288302D-02 -0.130840D-03 -0.282000D-04 -0.912242D-04
      2   0.600191D-03 -0.120881D-02  0.447918D-03  0.231839D-04 -0.292366D-03
      3  -0.124707D-02  0.296698D-02  0.996303D-03 -0.473329D-03 -0.234053D-04
              5556          5557          5558          5559          5560 
      1  -0.111939D-03 -0.501266D-03  0.183619D-03  0.243055D-03  0.504423D-03
      2  -0.453954D-03  0.119375D-03 -0.568786D-04  0.235288D-03 -0.498577D-03
      3  -0.810896D-03  0.469836D-03 -0.111972D-03 -0.744927D-04 -0.350958D-03
              5561          5562          5563          5564          5565 
      1   0.577676D-03  0.133025D-02 -0.689146D-03  0.944749D-04 -0.181147D-03
      2   0.286171D-03 -0.979842D-03  0.238382D-04  0.257937D-03 -0.169227D-03
      3   0.251987D-02 -0.422490D-02 -0.433212D-03  0.314189D-03  0.409537D-03
              5566          5567          5568          5569          5570 
      1   0.325263D-03  0.108176D-03  0.618965D-03  0.116341D-03 -0.308744D-04
      2  -0.308475D-03 -0.154157D-02  0.324950D-03  0.110863D-02  0.395213D-03
      3  -0.183809D-03 -0.335233D-03  0.460376D-03  0.374386D-03 -0.202789D-03
 Leave Link  701 at Tue Apr 18 16:48:31 2017, MaxMem=  7340032000 cpu:            1440.5 elap:              90.3
 (Enter /cm/shared/apps/gaussian/gdvH36/gdv/l702.exe)
 L702 exits ... SP integral derivatives will be done elsewhere.
 Leave Link  702 at Tue Apr 18 16:48:31 2017, MaxMem=  7340032000 cpu:               0.3 elap:               0.0
 (Enter /cm/shared/apps/gaussian/gdvH36/gdv/l703.exe)
 Compute integral first derivatives, UseDBF=F ICtDFT=           0.
 Integral derivatives from FoFJK, PRISM(SPDF).
 Calling FoFJK, ICntrl=      2127 FMM=F ISym2X=0 I1Cent= 0 IOpClX= 0 NMat=1 NMatS=1 NMatT=0.
 FoFJK:  IHMeth= 1 ICntrl=    2127 DoSepK=F KAlg= 0 I1Cent=           0 FoldK=F
 IRaf=         0 NMat=       1 IRICut=       1 DoRegI=T DoRafI=F ISym2E= 0.
 FoFCou: FMM=F IPFlag=           0 FMFlag=      100000 FMFlg1=         800
         NFxFlg=           0 DoJE=F BraDBF=F KetDBF=F FulRan=T
         wScrn=  0.000000 ICntrl=      2127 IOpCl=  0 I1Cent=           0 NGrid=           0
         NMat0=    1 NMatS0=      1 NMatT0=    0 NMatD0=    1 NMtDS0=    0 NMtDT0=    0
 Symmetry not used in FoFCou.
 Leave Link  703 at Tue Apr 18 16:48:33 2017, MaxMem=  7340032000 cpu:              22.9 elap:               1.5
 (Enter /home/daniele/workdir/XLBOMD//exe-dir/l716.exe)
 Dipole        = 2.41415097D+00-2.37664373D+00 2.35277155D+01
 -------------------------------------------------------------------
 Center     Atomic                   Forces (H/Bohr)
 Number     Number              X              Y              Z
 -------------------------------------------------------------------
      1        6          -0.01670213730203    0.00683540287739    0.04291754252320
      2        6           0.03830840717573   -0.00970956537103   -0.02628026748153
      3        6           0.00284942982346    0.00489045643782   -0.04623158284167
      4        6           0.02178154364167   -0.00317798487288   -0.02729103158898
      5        6          -0.02437293689682    0.00009741619382    0.02293035536182
      6        6          -0.00934692874188    0.01009058666241    0.01214686015347
      7        1          -0.00399534251625   -0.00178015623616    0.00054446133513
      8        1          -0.00089228047477    0.00187513078215   -0.00189304873531
      9        6          -0.09220923580085   -0.00359913876599    0.03035896619726
     10        1           0.00149148031557   -0.00196038523720   -0.00010383436024
     11        1           0.00019744454706   -0.00785603894141    0.00161580965430
     12        6           0.01769421827011    0.00427677418186   -0.06995835361705
     13        6          -0.02224146718346    0.00337891140085    0.05752868377163
     14        6          -0.00926024892100    0.00613987391573    0.01746218084427
     15        6           0.03345378527530    0.00016128262710    0.01863032050367
     16        6           0.01966100784810   -0.01180793589043    0.02713304812422
     17        6          -0.05286562189522    0.00676551523421   -0.00098548988134
     18        1           0.00028320807102   -0.00069166451699    0.00164414679716
     19        6          -0.01096566036952    0.00775749569365   -0.02614947684167
     20        1           0.00845154386693    0.00322347799198    0.00199010022697
     21        6           0.02145590624104   -0.01977565754679   -0.01903391417404
     22        1           0.00063787280836   -0.00234096141149    0.00163350003495
     23        1          -0.00263093254171    0.00112636831223   -0.00772132933218
     24        1          -0.00488326074908    0.00847827098938    0.00250738362487
     25        8          -0.00384883440565   -0.00139429346773    0.03166377748566
     26        8           0.07699425794763   -0.00024951337509   -0.00549223427926
     27        8          -0.01152370673636   -0.00374139384033   -0.03441925420868
     28        1           0.02215941425018    0.00302689836883   -0.00325915222781
 -------------------------------------------------------------------
 Cartesian Forces:  Max     0.092209236 RMS     0.023149415
 Z-matrix is all fixed cartesians, so copy forces.
 Leave Link  716 at Tue Apr 18 16:48:33 2017, MaxMem=  7340032000 cpu:               0.8 elap:               0.1
 (Enter /cm/shared/apps/gaussian/gdvH36/gdv/l103.exe)

 GradGradGradGradGradGradGradGradGradGradGradGradGradGradGradGradGradGrad
 Berny optimization.
 Search for a local minimum.
 Step number   1 out of a maximum of    2
 All quantities printed in internal units (Hartrees-Bohrs-Radians)
 Second derivative matrix not updated -- first step.
 ITU=  0
     Eigenvalues ---    0.00044   0.00104   0.00173   0.00379   0.00457
     Eigenvalues ---    0.00954   0.01222   0.01640   0.01792   0.01805
     Eigenvalues ---    0.02044   0.02573   0.02678   0.02903   0.03645
     Eigenvalues ---    0.03801   0.04968   0.05334   0.06744   0.06922
     Eigenvalues ---    0.06976   0.07031   0.07073   0.07200   0.07424
     Eigenvalues ---    0.07764   0.09207   0.09291   0.09822   0.09895
     Eigenvalues ---    0.11634   0.12199   0.12875   0.13270   0.14119
     Eigenvalues ---    0.14507   0.17096   0.17857   0.19604   0.22708
     Eigenvalues ---    0.25075   0.27596   0.29789   0.30787   0.31435
     Eigenvalues ---    0.32967   0.33642   0.35812   0.36068   0.43803
     Eigenvalues ---    0.44487   0.45455   0.47179   0.50291   0.59836
     Eigenvalues ---    0.66510   0.67140   0.72586   0.76637   0.93080
     Eigenvalues ---    1.02094   1.03952   1.09543   1.11494   1.15761
     Eigenvalues ---    1.20160   1.27854   1.30579   1.34675   1.43092
     Eigenvalues ---    1.49026   1.52037   1.58970   1.64541   1.66319
     Eigenvalues ---    1.73150   1.81980   2.24496
 Quadratic step=1.756D+00 exceeds max=3.000D-01 adjusted using Lamda=-7.790D-02.
 Angle between NR and scaled steps=  62.78 degrees.
 Angle between quadratic step and forces=  51.84 degrees.
 Linear search not attempted -- first point.
 B after Tr=    -0.049997   -0.017730    0.074621
         Rot=    1.000000    0.000640   -0.000022    0.000428 Ang=   0.09 deg.
 Variable       Old X    -DE/DX   Delta X   Delta X   Delta X     New X
                                 (Linear)    (Quad)   (Total)
    X1       63.04126  -0.01670   0.00000  -0.01161  -0.01151  63.02975
    Y1       55.29528   0.00684   0.00000   0.03200   0.03811  55.33339
    Z1       60.87564   0.04292   0.00000   0.04366   0.04473  60.92037
    X2       64.35651   0.03831   0.00000   0.03988   0.03996  64.39647
    Y2       55.45401  -0.00971   0.00000  -0.03233  -0.03023  55.42378
    Z2       58.71568  -0.02628   0.00000  -0.02220  -0.02131  58.69437
    X3       63.13197   0.00285   0.00000   0.01638   0.01636  63.14833
    Y3       55.41811   0.00489   0.00000   0.00607   0.00625  55.42436
    Z3       56.40455  -0.04623   0.00000  -0.04536  -0.04442  56.36013
    X4       60.47313   0.02178   0.00000   0.02462   0.02462  60.49775
    Y4       55.45968  -0.00318   0.00000  -0.00839  -0.00599  55.45370
    Z4       56.33652  -0.02729   0.00000  -0.01474  -0.01372  56.32279
    X5       59.11441  -0.02437   0.00000  -0.01942  -0.01926  59.09515
    Y5       55.52393   0.00010   0.00000  -0.00308   0.00337  55.52730
    Z5       58.51726   0.02293   0.00000   0.02720   0.02819  58.54545
    X6       60.39754  -0.00935   0.00000  -0.02623  -0.02605  60.37149
    Y6       55.39165   0.01009   0.00000   0.03482   0.04312  55.43477
    Z6       60.80194   0.01215   0.00000   0.04547   0.04653  60.84846
    X7       64.04660  -0.00400   0.00000  -0.02424  -0.02407  64.02253
    Y7       55.31984  -0.00178   0.00000  -0.00169   0.00586  55.32571
    Z7       62.66521   0.00054   0.00000   0.04022   0.04125  62.70646
    X8       66.40687  -0.00089   0.00000   0.03044   0.03057  66.43744
    Y8       55.49370   0.00188   0.00000  -0.01229  -0.01191  55.48179
    Z8       58.74025  -0.00189   0.00000  -0.02356  -0.02283  58.71741
    X9       64.55493  -0.09221   0.00000  -0.02996  -0.03004  64.52490
    Y9       55.47480  -0.00360   0.00000   0.00960   0.00555  55.48035
    Z9       53.93845   0.03036   0.00000   0.03360   0.03441  53.97286
   X10       57.07162   0.00149   0.00000  -0.01367  -0.01337  57.05824
   Y10       55.71291  -0.00196   0.00000  -0.02751  -0.01944  55.69347
   Z10       58.44356  -0.00010   0.00000   0.00520   0.00607  58.44963
   X11       59.34307   0.00020   0.00000  -0.02552  -0.02513  59.31794
   Y11       55.63732  -0.00786   0.00000  -0.05223  -0.04079  55.59653
   Z11       62.54616   0.00162   0.00000   0.04678   0.04768  62.59383
   X12       60.41076   0.01769   0.00000   0.00456   0.00430  60.41507
   Y12       55.34630   0.00428   0.00000   0.03690   0.03354  55.37984
   Z12       51.82007  -0.06996   0.00000  -0.05615  -0.05504  51.76503
   X13       63.01859  -0.02224   0.00000  -0.01887  -0.01909  62.99949
   Y13       55.41055   0.00338   0.00000   0.02799   0.02229  55.43284
   Z13       51.61976   0.05753   0.00000   0.04638   0.04731  51.66707
   X14       58.63820  -0.00926   0.00000  -0.00115  -0.00153  58.63667
   Y14       55.33118   0.00614   0.00000   0.02604   0.02148  55.35266
   Z14       49.61854   0.01746   0.00000   0.01458   0.01580  49.63434
   X15       59.39031   0.03345   0.00000   0.02109   0.02065  59.41096
   Y15       55.38598   0.00016   0.00000   0.02177   0.01328  55.39926
   Z15       47.05607   0.01863   0.00000   0.02261   0.02374  47.07981
   X16       56.00770   0.01966   0.00000   0.01587   0.01548  56.02318
   Y16       55.34252  -0.01181   0.00000  -0.03442  -0.03606  55.30646
   Z16       50.13632   0.02713   0.00000   0.02395   0.02535  50.16168
   X17       57.67444  -0.05287   0.00000  -0.04749  -0.04798  57.62646
   Y17       55.44456   0.00677   0.00000   0.00985   0.00042  55.44498
   Z17       45.13422  -0.00099   0.00000   0.01418   0.01533  45.14954
   X18       61.39342   0.00028   0.00000   0.01655   0.01606  61.40948
   Y18       55.36520  -0.00069   0.00000   0.01070  -0.00008  55.36512
   Z18       46.61576   0.00164   0.00000   0.01591   0.01699  46.63275
   X19       54.22947  -0.01097   0.00000   0.00303   0.00249  54.23196
   Y19       55.24236   0.00776   0.00000   0.00192  -0.00066  55.24171
   Z19       48.27305  -0.02615   0.00000  -0.04204  -0.04047  48.23258
   X20       55.30472   0.00845   0.00000   0.05414   0.05373  55.35845
   Y20       55.17811   0.00322   0.00000   0.00894   0.01034  55.18845
   Z20       52.05629   0.00199   0.00000   0.03442   0.03601  52.09229
   X21       55.01371   0.02146   0.00000   0.00455   0.00402  55.01772
   Y21       55.43701  -0.01978   0.00000  -0.05833  -0.06481  55.37220
   Z21       45.75405  -0.01903   0.00000  -0.04242  -0.04106  45.71299
   X22       58.25081   0.00064   0.00000  -0.02168  -0.02217  58.22864
   Y22       55.56929  -0.00234   0.00000  -0.00706  -0.01951  55.54977
   Z22       43.16890   0.00163   0.00000   0.01915   0.02013  43.18904
   X23       52.26793  -0.00263   0.00000  -0.01355  -0.01421  52.25372
   Y23       55.04394   0.00113   0.00000   0.02603   0.02583  55.06977
   Z23       48.84375  -0.00772   0.00000  -0.07942  -0.07755  48.76620
   X24       53.71924  -0.00488   0.00000  -0.03366  -0.03440  53.68484
   Y24       55.16677   0.00848   0.00000   0.04853   0.04122  55.20800
   Z24       44.18558   0.00251   0.00000  -0.02066  -0.01903  44.16655
   X25       59.17677  -0.00385   0.00000   0.01446   0.01435  59.19112
   Y25       55.44079  -0.00139   0.00000  -0.00693  -0.00632  55.43447
   Z25       54.04239   0.03166   0.00000   0.00529   0.00639  54.04878
   X26       66.84528   0.07699   0.00000   0.04574   0.04569  66.89098
   Y26       55.55228  -0.00025   0.00000  -0.02646  -0.03277  55.51951
   Z26       53.78350  -0.00549   0.00000   0.01212   0.01277  53.79627
   X27       64.49257  -0.01152   0.00000  -0.04359  -0.04383  64.44875
   Y27       55.57685  -0.00374   0.00000  -0.04891  -0.05859  55.51826
   Z27       49.56185  -0.03442   0.00000  -0.03919  -0.03843  49.52341
   X28       66.17065   0.02216   0.00000   0.04483   0.04437  66.21502
   Y28       55.17622   0.00303   0.00000   0.06692   0.05647  55.23269
   Z28       50.19868  -0.00326   0.00000  -0.09584  -0.09480  50.10389
         Item               Value     Threshold  Converged?
 Maximum Force            0.092209     0.000450     NO 
 RMS     Force            0.023149     0.000300     NO 
 Maximum Displacement     0.094795     0.001800     NO 
 RMS     Displacement     0.032547     0.001200     NO 
 Predicted change in Energy=-2.319510D-02
 GradGradGradGradGradGradGradGradGradGradGradGradGradGradGradGradGradGrad

 Leave Link  103 at Tue Apr 18 16:48:33 2017, MaxMem=  7340032000 cpu:               1.2 elap:               0.1
 (Enter /cm/shared/apps/gaussian/gdvH36/gdv/l9999.exe)
 Unable to Open any file for archive entry.
 1\1\GINC-C8000-19\Force\RB3LYP\6-31G\C15H10O3\DANIELE\18-Apr-2017\0\\#
 p b3lyp 6-31G nosymm scf=(conver=6) mmpol=(conver=8,nofmm,jacobi,dyn) 
 force\\ONIOM QM/MMPol HL=Cytosine LL=Guanine FREE (Init Geom MP2) CHAR
 GES = ff02r1\\0,1\C,33.36,29.261,32.214\C,34.056,29.345,31.071\C,33.40
 8,29.326,29.848\C,32.001,29.348,29.812\C,31.282,29.382,30.966\C,31.961
 ,29.312,32.175\H,33.892,29.274,33.161\H,35.141,29.366,31.084\C,34.161,
 29.356,28.543\H,30.201,29.482,30.927\H,31.403,29.442,33.098\C,31.968,2
 9.288,27.422\C,33.348,29.322,27.316\C,31.03,29.28,26.257\C,31.428,29.3
 09,24.901\C,29.638,29.286,26.531\C,30.52,29.34,23.884\H,32.488,29.298,
 24.668\C,28.697,29.233,25.545\H,29.266,29.199,27.547\C,29.112,29.336,2
 4.212\H,30.825,29.406,22.844\H,27.659,29.128,25.847\H,28.427,29.193,23
 .382\O,31.315,29.338,28.598\O,35.373,29.397,28.461\O,34.128,29.41,26.2
 27\H,35.016,29.198,26.564\\Version=ES64L-GDVRevH.36\HF=-804.2587\RMSD=
 4.022e-07\RMSF=2.315e-02\Dipole=2.414151,-2.3766437,23.5277155\Quadrup
 ole=-121.0621945,-12.7264707,133.7886651,-70.7539879,7.6841674,49.8173
 864\PG=C01 [X(C15H10O3)]\\@
 The archive entry for this job was punched.


 THERE ONCE WAS A GIRL NAMED IRENE,
 WHO LIVED ON DISTILLED KEROSENE,
      BUT SHE STARTED ABSORBIN'
      A NEW HYDROCARBON,
 AND SINCE THEN HAS NEVER BENZENE.
 Job cpu time:       0 days  0 hours 41 minutes 37.2 seconds.
 Elapsed time:       0 days  0 hours  2 minutes 36.8 seconds.
 File lengths (MBytes):  RWF=   2180 Int=      0 D2E=      0 Chk=      3 Scr=      1
 Normal termination of Gaussian DV at Tue Apr 18 16:48:34 2017.
